LAMMPS (29 Sep 2021 - Update 1)
  using 1 OpenMP thread(s) per MPI task
units metal
atom_style charge
atom_modify map array
pair_style buck/coul/long 12
kspace_style pppm 1.0e-4
read_data ../LSF_supercell_md3.lmp
Reading data file ...
  orthogonal box = (-0.80191730 -0.31750700 -0.64594845) to (80.801917 80.317507 80.645948)
  2 by 1 by 2 MPI processor grid
WARNING: Pair style in data file differs from currently defined pair style (src/read_data.cpp:598)
  reading atoms ...
  41069 atoms
  reading velocities ...
  41069 velocities
  read_data CPU = 0.675 seconds
thermo 5
min_style fire
minimize 0.0 1e-08 1000 100000
WARNING: Using 'neigh_modify every 1 delay 0 check yes' setting during minimization (src/min.cpp:188)
PPPM initialization ...
  using 12-bit tables for long-range coulomb (src/kspace.cpp:340)
  G vector (1/distance) = 0.25538187
  grid = 60 60 60
  stencil order = 5
  estimated absolute RMS force accuracy = 0.0015746464
  estimated relative force accuracy = 0.00010935314
  using double precision MKL FFT
  3d grid and FFT values/proc = 91723 54000
Neighbor list info ...
  update every 1 steps, delay 0 steps, check yes
  max neighbors/atom: 2000, page size: 100000
  master list distance cutoff = 14
  ghost atom cutoff = 14
  binsize = 7, bins = 12 12 12
  1 neighbor lists, perpetual/occasional/extra = 1 0 0
  (1) pair buck/coul/long, perpetual
      attributes: half, newton on
      pair build: half/bin/atomonly/newton
      stencil: half/bin/3d
      bin: standard
  Parameters for fire: 
    dmax delaystep dtgrow dtshrink alpha0 alphashrink tmax tmin    integrator halfstepback 
     0.1        20    1.1      0.5   0.25        0.99   10 0.02 eulerimplicit          yes 
Per MPI rank memory allocation (min/avg/max) = 36.07 | 36.64 | 37.21 Mbytes
Step Temp E_pair E_mol TotEng Press 
       0            0     -1106790            0     -1106790   -18985.732 
       5    255.03249   -1108383.4            0   -1107029.5   -22347.762 
      10    906.41221   -1110943.6            0     -1106132   -26380.005 
      15    1442.3113   -1112914.8            0   -1105258.4   -31016.449 
      20    1619.3533   -1114195.9            0   -1105599.6   -36496.891 
      25    1550.3136     -1115129            0   -1106899.3   -42231.804 
      30    1091.8293   -1115842.3            0   -1110046.4   -49287.905 
      35    479.40867   -1116228.6            0   -1113683.7   -54592.468 
      40    168.98429   -1116393.3            0   -1115496.3   -56709.598 
      45    54.384122   -1116477.3            0   -1116188.6    -56994.44 
      50     3.109318   -1116493.5            0   -1116476.9   -57726.054 
      55    7.4207633   -1116515.5            0   -1116476.1   -57737.683 
      60    10.488562   -1116538.3            0   -1116482.6   -57558.934 
      65    8.5033412   -1116559.1            0     -1116514   -57254.961 
      70    5.0069271     -1116576            0   -1116549.4   -56923.705 
      75  0.003112806   -1116582.4            0   -1116582.4   -56836.909 
      80  0.093138243   -1116582.9            0   -1116582.4   -56832.549 
      85   0.32914591   -1116583.9            0   -1116582.1   -56821.021 
      90   0.68163169   -1116585.4            0   -1116581.8    -56802.04 
      95     1.129075   -1116587.5            0   -1116581.5   -56772.963 
     100     1.861278     -1116591            0   -1116581.1   -56715.987 
     105     3.373664   -1116598.2            0   -1116580.3   -56580.549 
     110   0.07573804   -1116607.5            0   -1116607.1   -56432.733 
     115  0.023619268   -1116607.9            0   -1116607.8   -56429.707 
     120   0.12849575   -1116608.4            0   -1116607.7   -56423.249 
     125   0.31586287   -1116609.2            0   -1116607.5   -56412.345 
     130    0.5691745   -1116610.3            0   -1116607.3   -56396.162 
     135   0.91106578   -1116611.8            0     -1116607   -56370.947 
     140    1.5602903   -1116614.9            0   -1116606.6   -56316.336 
     145      2.90795   -1116621.2            0   -1116605.8   -56199.769 
     150  0.054179822   -1116624.5            0   -1116624.2   -56178.214 
     155   0.30091955   -1116625.9            0   -1116624.3   -56165.435 
     160   0.78494594   -1116628.4            0   -1116624.2   -56136.806 
     165    1.3602305   -1116631.4            0   -1116624.1   -56092.754 
     170    2.1283769   -1116635.3            0     -1116624   -56032.419 
     175    1.2094803   -1116639.9            0   -1116633.5   -55944.806 
     180 0.0041530354   -1116640.9            0   -1116640.8   -55942.863 
     185  0.045591744   -1116641.1            0   -1116640.8   -55941.057 
     190   0.12694273   -1116641.4            0   -1116640.7   -55936.354 
     195   0.23307931   -1116641.9            0   -1116640.7   -55928.805 
     200   0.37032731   -1116642.5            0   -1116640.6   -55917.489 
     205   0.61932471   -1116643.7            0   -1116640.4   -55893.945 
     210    1.1603867   -1116646.2            0   -1116640.1   -55838.045 
     215 0.00048790114   -1116647.6            0   -1116647.6   -55819.022 
     220  0.015398054   -1116647.7            0   -1116647.6    -55817.88 
     225  0.057281142   -1116647.9            0   -1116647.6   -55814.925 
     230   0.12405731   -1116648.2            0   -1116647.5   -55810.343 
     235   0.21243857   -1116648.6            0   -1116647.5   -55803.505 
     240   0.35807113   -1116649.3            0   -1116647.4   -55790.269 
     245   0.68093747   -1116650.8            0   -1116647.2   -55756.733 
     250    1.2848651     -1116654            0   -1116647.2   -55682.011 
     255   0.80967448   -1116656.6            0   -1116652.4   -55629.365 
     260 0.0013714664   -1116657.9            0   -1116657.9   -55611.078 
     265  0.024479227   -1116658.1            0   -1116657.9    -55609.55 
     270   0.07572582   -1116658.3            0   -1116657.9   -55606.758 
     275    0.1527203   -1116658.7            0   -1116657.8   -55602.154 
     280   0.25199372   -1116659.1            0   -1116657.8   -55595.734 
     285   0.42300395     -1116660            0   -1116657.7   -55583.912 
     290   0.81481915   -1116661.9            0   -1116657.6   -55557.391 
     295  0.034434955   -1116663.5            0   -1116663.3   -55544.237 
     300 0.0096845156   -1116663.5            0   -1116663.5    -55544.01 
     305  0.039551333   -1116663.7            0   -1116663.5   -55542.998 
     310  0.087688747   -1116663.9            0   -1116663.4   -55541.227 
     315   0.15087048   -1116664.2            0   -1116663.4   -55538.747 
     320   0.24431879   -1116664.6            0   -1116663.3   -55534.292 
     325    0.4352603   -1116665.5            0   -1116663.2   -55522.242 
     330   0.59375703   -1116666.9            0   -1116663.8   -55486.737 
     335 0.0018843743   -1116667.1            0   -1116667.1   -55495.916 
     340  0.014892895   -1116667.2            0   -1116667.1   -55494.784 
     345  0.040473108   -1116667.3            0   -1116667.1   -55492.546 
     350  0.075985944   -1116667.4            0     -1116667    -55489.26 
     355   0.12367973   -1116667.7            0     -1116667   -55484.396 
     360   0.22090029   -1116668.2            0     -1116667   -55473.983 
     365   0.45499331   -1116669.3            0   -1116666.9   -55449.127 
     370  0.025823111   -1116670.6            0   -1116670.4   -55412.873 
     375 0.0085251155   -1116670.6            0   -1116670.6    -55411.85 
     380  0.023125114   -1116670.7            0   -1116670.6     -55409.6 
     385  0.048092614   -1116670.8            0   -1116670.6   -55406.086 
     390   0.08252875     -1116671            0   -1116670.6   -55401.101 
     395   0.13106394   -1116671.2            0   -1116670.5     -55393.6 
     400   0.23757016   -1116671.8            0   -1116670.5   -55377.657 
     405   0.36107219   -1116672.7            0   -1116670.8   -55341.087 
     410  0.001218743   -1116672.8            0   -1116672.8   -55346.514 
     415 0.0097959418   -1116672.8            0   -1116672.8   -55345.727 
     420  0.025213096   -1116672.9            0   -1116672.8   -55344.152 
     425  0.045047698     -1116673            0   -1116672.8   -55341.632 
     430  0.070350708   -1116673.1            0   -1116672.7   -55337.987 
     435   0.11732775   -1116673.3            0   -1116672.7   -55330.032 
     440   0.21800987   -1116673.8            0   -1116672.6   -55312.272 
     445 0.0085115262   -1116674.2            0   -1116674.2   -55297.554 
     450 0.0019463389   -1116674.2            0   -1116674.2   -55297.332 
     455 0.0082144982   -1116674.2            0   -1116674.2   -55296.356 
     460  0.018698228   -1116674.3            0   -1116674.2   -55294.644 
     465  0.032521975   -1116674.3            0   -1116674.2   -55292.162 
     470  0.052534085   -1116674.4            0   -1116674.2   -55288.178 
     475   0.09447415   -1116674.6            0   -1116674.1   -55279.241 
     480   0.15925486     -1116675            0   -1116674.2    -55257.45 
     485 0.00037254242   -1116675.1            0   -1116675.1   -55254.883 
     490 0.0035384897   -1116675.1            0   -1116675.1   -55254.212 
     495  0.010658976   -1116675.2            0   -1116675.1   -55252.679 
     500  0.021254433   -1116675.2            0   -1116675.1    -55250.36 
     505  0.035384551   -1116675.3            0   -1116675.1   -55247.159 
     510  0.061930282   -1116675.4            0   -1116675.1   -55240.817 
     515   0.12512019   -1116675.7            0   -1116675.1   -55225.753 
     520 0.0061514854     -1116676            0     -1116676    -55212.11 
     525 0.0016892348   -1116676.1            0     -1116676   -55211.998 
     530 0.0072585216   -1116676.1            0     -1116676   -55211.004 
     535  0.016553751   -1116676.1            0     -1116676   -55209.396 
     540  0.028919921   -1116676.2            0     -1116676   -55207.101 
     545  0.047637646   -1116676.3            0     -1116676   -55203.463 
     550  0.089917844   -1116676.5            0     -1116676   -55195.789 
     555   0.18902507     -1116677            0     -1116676   -55179.377 
     560 0.0005691215   -1116677.1            0   -1116677.1   -55177.643 
     565 0.0060878241   -1116677.1            0   -1116677.1   -55176.943 
     570  0.018748603   -1116677.2            0   -1116677.1   -55175.899 
     575   0.03846254   -1116677.3            0   -1116677.1   -55174.286 
     580  0.066253196   -1116677.4            0   -1116677.1   -55171.941 
     585   0.12220941   -1116677.7            0     -1116677   -55167.563 
     590   0.26525849   -1116678.3            0   -1116676.9   -55157.661 
     595   0.01043066   -1116678.8            0   -1116678.7   -55150.267 
     600  0.002829561   -1116678.8            0   -1116678.8   -55149.907 
     605  0.011701028   -1116678.8            0   -1116678.8   -55149.194 
     610  0.024690844   -1116678.9            0   -1116678.8   -55147.935 
     615   0.04102143     -1116679            0   -1116678.8   -55146.179 
     620  0.065989941   -1116679.1            0   -1116678.7   -55143.355 
     625   0.12121916   -1116679.3            0   -1116678.7   -55137.081 
     630   0.25173737   -1116679.9            0   -1116678.6   -55122.257 
     635 0.00059484235   -1116680.3            0   -1116680.3   -55116.243 
     640 0.0060911118   -1116680.3            0   -1116680.3    -55115.24 
     645  0.016848007   -1116680.4            0   -1116680.3   -55114.138 
     650  0.034722653   -1116680.4            0   -1116680.3   -55112.051 
     655  0.058103253   -1116680.5            0   -1116680.2   -55109.009 
     660  0.093697996   -1116680.7            0   -1116680.2   -55103.429 
     665   0.15491682     -1116681            0   -1116680.2   -55091.614 
     670 0.0028307073   -1116681.1            0   -1116681.1   -55087.562 
     675  0.008649412   -1116681.2            0   -1116681.1   -55087.076 
     680  0.022178547   -1116681.2            0   -1116681.1   -55086.089 
     685   0.04311536   -1116681.3            0   -1116681.1   -55084.999 
     690  0.073992896   -1116681.5            0   -1116681.1    -55083.74 
     695   0.12131939   -1116681.8            0   -1116681.2   -55079.906 
     700 0.0041710676   -1116681.9            0   -1116681.9   -55080.079 
     705  0.018382293     -1116682            0   -1116681.9   -55078.853 
     710  0.045487372   -1116682.1            0   -1116681.9   -55075.847 
     715  0.083326602   -1116682.3            0   -1116681.8   -55070.145 
     720   0.11153703   -1116682.5            0   -1116681.9    -55061.81 
     725  0.063429746   -1116682.7            0   -1116682.4   -55052.203 
     730 0.00040011022   -1116682.8            0   -1116682.8   -55050.891 
     735 0.0032141968   -1116682.8            0   -1116682.8   -55050.533 
     740 0.0092001332   -1116682.8            0   -1116682.8   -55050.001 
     745  0.017856218   -1116682.9            0   -1116682.8   -55049.173 
     750  0.029626043   -1116682.9            0   -1116682.8   -55048.001 
     755  0.052755427   -1116683.1            0   -1116682.8   -55045.731 
     760    0.1109361   -1116683.4            0   -1116682.8   -55040.733 
     765 0.0075506804   -1116683.6            0   -1116683.6   -55036.735 
     770 0.0020330012   -1116683.6            0   -1116683.6   -55037.096 
     775 0.0073129677   -1116683.7            0   -1116683.6   -55036.668 
     780  0.015911599   -1116683.7            0   -1116683.6   -55036.227 
     785  0.027410621   -1116683.8            0   -1116683.6   -55035.577 
     790  0.044664527   -1116683.8            0   -1116683.6   -55034.385 
     795   0.08076204     -1116684            0   -1116683.6    -55031.35 
     800 0.00059912487   -1116684.2            0   -1116684.2   -55027.263 
     805 0.0038572556   -1116684.2            0   -1116684.2   -55026.832 
     810   0.01127322   -1116684.2            0   -1116684.2   -55025.873 
     815  0.023506523   -1116684.3            0   -1116684.2   -55024.324 
     820   0.04143999   -1116684.4            0   -1116684.2   -55022.132 
     825  0.071617921   -1116684.5            0   -1116684.2   -55018.536 
     830  0.051542306   -1116684.8            0   -1116684.5   -55011.428 
     835   0.00105855   -1116684.8            0   -1116684.8   -55013.253 
     840 0.0045146755   -1116684.8            0   -1116684.8   -55012.908 
     845  0.010560947   -1116684.9            0   -1116684.8   -55012.168 
     850  0.018761409   -1116684.9            0   -1116684.8   -55011.074 
     855  0.029697227     -1116685            0   -1116684.8   -55009.522 
     860  0.051277224   -1116685.1            0   -1116684.8   -55006.375 
     865  0.086109793   -1116685.3            0   -1116684.8   -54999.637 
     870 0.00017948309   -1116685.4            0   -1116685.4       -55000 
     875 0.0021202837   -1116685.4            0   -1116685.4   -54999.929 
     880 0.0065062008   -1116685.4            0   -1116685.4   -54999.517 
     885  0.012906363   -1116685.4            0   -1116685.4   -54999.032 
     890  0.021265842   -1116685.5            0   -1116685.4   -54998.131 
     895  0.036364857   -1116685.5            0   -1116685.4   -54996.257 
     900  0.070344915   -1116685.7            0   -1116685.3   -54991.359 
     905 0.0029256854   -1116685.9            0   -1116685.9   -54986.609 
     910 0.00077815678   -1116685.9            0   -1116685.9   -54986.666 
     915 0.0034313775   -1116685.9            0   -1116685.9   -54986.279 
     920 0.0078663346   -1116685.9            0   -1116685.9   -54985.581 
     925  0.013683571   -1116685.9            0   -1116685.9   -54984.611 
     930   0.02220492     -1116686            0   -1116685.9   -54982.968 
     935  0.040335514   -1116686.1            0   -1116685.8   -54979.581 
     940  0.080005866   -1116686.3            0   -1116685.8   -54973.981 
     945 0.00016616715   -1116686.4            0   -1116686.4   -54972.645 
     950 0.0020014174   -1116686.4            0   -1116686.4    -54973.19 
     955 0.0060809486   -1116686.4            0   -1116686.4   -54973.099 
     960  0.012650128   -1116686.4            0   -1116686.4   -54973.349 
     965  0.021546608   -1116686.5            0   -1116686.4   -54973.694 
     970  0.037439928   -1116686.6            0   -1116686.4   -54974.253 
     975  0.074444334   -1116686.8            0   -1116686.4   -54974.485 
     980 0.0032084542   -1116686.9            0   -1116686.9   -54973.736 
     985 0.00077403035   -1116686.9            0   -1116686.9   -54973.872 
     990 0.0034158063   -1116686.9            0   -1116686.9   -54973.605 
     995 0.0077535472   -1116686.9            0   -1116686.9   -54973.176 
    1000  0.013376075     -1116687            0   -1116686.9   -54972.551 
Loop time of 687.196 on 4 procs for 1000 steps with 41069 atoms

51.7% CPU use with 4 MPI tasks x 1 OpenMP threads

Minimization stats:
  Stopping criterion = max iterations
  Energy initial, next-to-last, final = 
     -1106790.01168452  -1116686.96395344  -1116686.96936866
  Force two-norm initial, final = 619.23590 0.43529348
  Force max component initial, final = 12.518491 0.12043885
  Final line search alpha, max atom move = 0.0000000 0.0000000
  Iterations, force evaluations = 1000 1050

MPI task timing breakdown:
Section |  min time  |  avg time  |  max time  |%varavg| %total
---------------------------------------------------------------
Pair    | 469.84     | 494.45     | 508.68     |  66.5 | 71.95
Kspace  | 126.59     | 141.05     | 164.83     | 122.0 | 20.53
Neigh   | 1.6747     | 1.7587     | 1.8251     |   4.1 |  0.26
Comm    | 13.227     | 14.976     | 16.219     |  28.1 |  2.18
Output  | 3.4653     | 3.5259     | 3.5844     |   2.3 |  0.51
Modify  | 0          | 0          | 0          |   0.0 |  0.00
Other   |            | 31.44      |            |       |  4.57

Nlocal:        10267.2 ave       10320 max       10215 min
Histogram: 1 1 0 0 0 0 0 0 1 1
Nghost:        29242.0 ave       29314 max       29152 min
Histogram: 1 0 0 0 0 1 1 0 0 1
Neighs:    4.51735e+06 ave 4.63549e+06 max  4.4068e+06 min
Histogram: 1 0 0 1 0 1 0 0 0 1

Total # of neighbors = 18069389
Ave neighs/atom = 439.97636
Neighbor list builds = 9
Dangerous builds = 0
write_data LSF_min.lmp
System init for write_data ...
PPPM initialization ...
  using 12-bit tables for long-range coulomb (src/kspace.cpp:340)
  G vector (1/distance) = 0.25538187
  grid = 60 60 60
  stencil order = 5
  estimated absolute RMS force accuracy = 0.0015746464
  estimated relative force accuracy = 0.00010935314
  using double precision MKL FFT
  3d grid and FFT values/proc = 91723 54000
WARNING: Not all mixed pair coeffs generated from mixing. Use write_data with 'pair ij' option to store all pair coeffs. (src/write_data.cpp:312)
Total wall time: 0:33:19
