 # Voronoi polycrystal with 6 grains

        7681  atoms
           1  atom types

      0.0      50.0  xlo xhi
      0.0      50.0  ylo yhi
      0.0      50.0  zlo zhi

Masses

            1   26.98153860             # Al

Atoms # atomic

         1    1       43.3061555     -22.8716030      46.0606330
         2    1       42.9673685     -21.5271650      48.5421465
         3    1       41.5449920     -19.0681580      48.6437920
         4    1       45.1942105     -20.2912680      49.8046570
         5    1       35.7285945     -15.6159120      42.7231915
         6    1       40.8001890     -19.2980280      43.7824110
         7    1       39.3778125     -16.8390215      43.8840565
         8    1       40.4614025     -17.9535900      46.2639245
         9    1       41.8837790     -20.4125965      46.1622785
        10    1       44.4494075     -20.5211375      44.9432760
        11    1       43.0270310     -18.0621310      45.0449215
        12    1       44.1106210     -19.1766995      47.4247895
        13    1       45.5329975     -21.6357060      47.3231435
        14    1       48.0986260     -21.7442475      46.1041410
        15    1       46.6762495     -19.2852405      46.2057865
        16    1       47.7598395     -20.3998090      48.5856545
        17    1       38.2942230     -15.7244535      41.5041885
        18    1       41.9434415     -16.9475630      42.6650535
        19    1       45.5926600     -18.1706725      43.8259185
        20    1       48.1582885     -18.2792135      42.6069160
        21    1       49.2418785     -19.3937820      44.9867835
        22    1       40.1226155     -16.6091515      48.7454380
        23    1       38.7002390     -14.1501450      48.8470835
        24    1       39.7838290     -15.2647135      51.2269515
        25    1       41.2062055     -17.7237200      51.1253055
        26    1       43.7718340     -17.8322610      49.9063030
        27    1       42.3494575     -15.3732545      50.0079485
        28    1       43.4330475     -16.4878230      52.3878165
        29    1       47.4210525     -19.0553710      51.0671680
        30    1       45.9986760     -16.5963640      51.1688135
        31    1       49.6478945     -17.8194735      52.3296785
        32    1       34.3062180     -13.1569055      42.8248370
        33    1       32.8838415     -10.6978990      42.9264825
        34    1       33.9674310     -11.8124670      45.3063505
        35    1       35.3898075     -14.2714740      45.2047050
        36    1       37.9554365     -14.3800150      43.9857020
        37    1       36.5330600     -11.9210085      44.0873480
        38    1       37.6166495     -13.0355765      46.4672155
        39    1       39.0390260     -15.4945835      46.3655700
        40    1       41.6046545     -15.6031245      45.1465670
        41    1       40.1822785     -13.1441180      45.2482130
        42    1       41.2658680     -14.2586865      47.6280805
        43    1       42.6882445     -16.7176930      47.5264350
        44    1       45.2538730     -16.8262340      46.3074320
        45    1       43.8314965     -14.3672275      46.4090780
        46    1       44.9150865     -15.4817960      48.7889455
        47    1       46.3374630     -17.9408025      48.6873000
        48    1       48.9030915     -18.0493435      47.4682970
        49    1       47.4807150     -15.5903370      47.5699430
        50    1       48.5643050     -16.7049055      49.9498105
        51    1       51.1299335     -16.8134465      48.7308080
        52    1       30.7166620      -8.4687625      38.1667470
        53    1       31.8002515      -9.5833305      40.5466150
        54    1       33.2226280     -12.0423370      40.4449690
        55    1       35.7882570     -12.1508785      39.2259665
        56    1       34.3658805      -9.6918720      39.3276120
        57    1       35.4494700     -10.8064400      41.7074800
        58    1       36.8718465     -13.2654465      41.6058345
        59    1       39.4374755     -13.3739880      40.3868315
        60    1       38.0150990     -10.9149815      40.4884770
        61    1       39.0986885     -12.0295495      42.8683450
        62    1       40.5210650     -14.4885565      42.7666995
        63    1       43.0866940     -14.5970975      41.5476965
        64    1       41.6643175     -12.1380910      41.6493420
        65    1       42.7479070     -13.2526595      44.0292100
        66    1       44.1702835     -15.7116660      43.9275645
        67    1       46.7359125     -15.8202070      42.7085615
        68    1       45.3135360     -13.3612005      42.8102070
        69    1       46.3971255     -14.4757690      45.1900750
        70    1       47.8195020     -16.9347755      45.0884295
        71    1       50.3851305     -17.0433165      43.8694265
        72    1       48.9627545     -14.5843100      43.9710725
        73    1       50.0463440     -15.6988785      46.3509400
        74    1       51.4687205     -18.1578850      46.2492945
        75    1       52.6119725     -15.8074195      45.1319375
        76    1       33.2822905      -8.5773035      36.9477445
        77    1       36.9315090      -9.8004130      38.1086095
        78    1       40.5807275     -11.0235225      39.2694745
        79    1       43.1463565     -11.1320640      38.0504715
        80    1       44.2299460     -12.2466320      40.4303395
        81    1       45.6523225     -14.7056390      40.3286935
        82    1       46.7955750     -12.3551735      39.2113365
        83    1       47.8791645     -13.4697420      41.5912045
        84    1       49.3015410     -15.9287485      41.4895590
        85    1       51.8671700     -16.0372895      40.2705560
        86    1       50.4447935     -13.5782830      40.3722015
        87    1       51.5283830     -14.6928515      42.7520695
        88    1       52.9507595     -17.1518580      42.6504240
        89    1       54.0940120     -14.8013925      41.5330665
        90    1       53.0104220     -13.6868245      39.1531990
        91    1       39.4450420     -13.9202750      53.7084650
        92    1       38.0226655     -11.4612685      53.8101105
        93    1       41.6718840     -12.6843780      54.9709755
        94    1       37.2778625     -11.6911385      48.9487290
        95    1       35.8554860      -9.2321320      49.0503750
        96    1       36.9390760     -10.3467000      51.4302425
        97    1       38.3614525     -12.8057070      51.3285970
        98    1       40.9270810     -12.9142480      50.1095940
        99    1       39.5047045     -10.4552415      50.2112400
       100    1       40.5882945     -11.5698100      52.5911075
       101    1       42.0106710     -14.0288165      52.4894620
       102    1       44.5762995     -14.1373575      51.2704590
       103    1       43.1539230     -11.6783510      51.3721050
       104    1       44.2375130     -12.7929195      53.7519725
       105    1       45.6598895     -15.2519260      53.6503270
       106    1       48.2255180     -15.3604670      52.4313240
       107    1       46.8031415     -12.9014605      52.5329700
       108    1       47.8867315     -14.0160290      54.9128375
       109    1       50.4523600     -14.1245700      53.6938350
       110    1       31.4614650      -8.2388925      43.0281285
       111    1       30.0390885      -5.7798855      43.1297740
       112    1       31.1226780      -6.8944540      45.5096420
       113    1       32.5450545      -9.3534605      45.4079960
       114    1       35.1106835      -9.4620020      44.1889935
       115    1       33.6883070      -7.0029955      44.2906390
       116    1       34.7718965      -8.1175635      46.6705070
       117    1       36.1942730     -10.5765700      46.5688615
       118    1       38.7599020     -10.6851115      45.3498585
       119    1       37.3375255      -8.2261050      45.4515040
       120    1       38.4211150      -9.3406730      47.8313720
       121    1       39.8434915     -11.7996795      47.7297265
       122    1       42.4091205     -11.9082210      46.5107235
       123    1       40.9867440      -9.4492145      46.6123690
       124    1       42.0703335     -10.5637825      48.9922370
       125    1       43.4927100     -13.0227895      48.8905915
       126    1       46.0583385     -13.1313305      47.6715885
       127    1       44.6359620     -10.6723240      47.7732345
       128    1       45.7195520     -11.7868925      50.1531020
       129    1       47.1419285     -14.2458990      50.0514565
       130    1       49.7075570     -14.3544400      48.8324535
       131    1       48.2851805     -11.8954335      48.9340995
       132    1       49.3687705     -13.0100020      51.3139670
       133    1       50.7911470     -15.4690085      51.2123215
       134    1       51.9343990     -13.1185430      50.0949645
       135    1       29.2942855      -6.0097555      38.2683930
       136    1       28.9554985      -4.6653175      40.7499065
       137    1       30.3778750      -7.1243240      40.6482605
       138    1       32.9435040      -7.2328650      39.4292580
       139    1       31.5211275      -4.7738585      39.5309035
       140    1       32.6047170      -5.8884270      41.9107715
       141    1       34.0270935      -8.3474335      41.8091255
       142    1       36.5927225      -8.4559750      40.5901230
       143    1       35.1703460      -5.9969680      40.6917685
       144    1       36.2539355      -7.1115365      43.0716365
       145    1       37.6763120      -9.5705430      42.9699905
       146    1       40.2419410      -9.6790845      41.7509880
       147    1       38.8195645      -7.2200780      41.8526335
       148    1       39.9031540      -8.3346460      44.2325015
       149    1       41.3255305     -10.7936525      44.1308555
       150    1       43.8911595     -10.9021940      42.9118530
       151    1       42.4687830      -8.4431875      43.0134985
       152    1       43.5523725      -9.5577555      45.3933665
       153    1       44.9747490     -12.0167620      45.2917210
       154    1       47.5403780     -12.1253035      44.0727180
       155    1       46.1180015      -9.6662970      44.1743635
       156    1       47.2015910     -10.7808650      46.5542315
       157    1       48.6239675     -13.2398720      46.4525860
       158    1       51.1895965     -13.3484130      45.2335830
       159    1       49.7672200     -10.8894065      45.3352285
       160    1       50.8508095     -12.0039750      47.7150965
       161    1       52.2731860     -14.4629815      47.6134510
       162    1       53.4164385     -12.1125160      46.4960935
       163    1       30.4375380      -3.6592905      37.1510355
       164    1       31.8599145      -6.1182970      37.0493900
       165    1       34.4255430      -6.2268380      35.8303870
       166    1       33.0031665      -3.7678315      35.9320330
       167    1       34.0867565      -4.8824000      38.3119005
       168    1       35.5091325      -7.3414065      38.2102550
       169    1       38.0747615      -7.4499475      36.9912520
       170    1       36.6523850      -4.9909410      37.0928980
       171    1       37.7359745      -6.1055095      39.4727655
       172    1       39.1583510      -8.5645160      39.3711200
       173    1       41.7239800      -8.6730575      38.1521175
       174    1       40.3016035      -6.2140505      38.2537630
       175    1       41.3851930      -7.3286190      40.6336310
       176    1       42.8075695      -9.7876255      40.5319850
       177    1       45.3731985      -9.8961670      39.3129825
       178    1       43.9508220      -7.4371605      39.4146280
       179    1       45.0344115      -8.5517285      41.7944960
       180    1       46.4567880     -11.0107350      41.6928500
       181    1       49.0224170     -11.1192765      40.4738475
       182    1       47.6000405      -8.6602700      40.5754930
       183    1       48.6836300      -9.7748380      42.9553610
       184    1       50.1060065     -12.2338445      42.8537150
       185    1       52.6716355     -12.3423860      41.6347125
       186    1       51.2492590      -9.8833795      41.7363580
       187    1       52.3328485     -10.9979475      44.1162260
       188    1       53.7552250     -13.4569545      44.0145800
       189    1       56.3208540     -13.5654955      42.7955775
       190    1       54.8984775     -11.1064890      42.8972230
       191    1       55.9820670     -12.2210575      45.2770910
       192    1       31.9195770      -2.6532635      33.5521650
       193    1       35.5687955      -3.8763730      34.7130300
       194    1       38.1344240      -3.9849140      33.4940275
       195    1       39.2180140      -5.0994825      35.8738950
       196    1       40.6403905      -7.5584890      35.7722495
       197    1       41.7836425      -5.2080235      34.6548925
       198    1       42.8672325      -6.3225920      37.0347600
       199    1       44.2896085      -8.7815985      36.9331145
       200    1       45.4328610      -6.4311330      35.8157575
       201    1       46.5164505      -7.5457015      38.1956250
       202    1       47.9388270     -10.0047080      38.0939795
       203    1       50.5044560     -10.1132495      36.8749765
       204    1       49.0820795      -7.6542430      36.9766225
       205    1       50.1656690      -8.7688110      39.3564900
       206    1       51.5880455     -11.2278175      39.2548445
       207    1       54.1536745     -11.3363590      38.0358420
       208    1       52.7312980      -8.8773525      38.1374875
       209    1       53.8148875      -9.9919205      40.5173555
       210    1       55.2372640     -12.4509270      40.4157095
       211    1       57.8028930     -12.5594685      39.1967070
       212    1       56.3805165     -10.1004620      39.2983525
       213    1       57.4641060     -11.2150300      41.6782205
       214    1       47.9984900      -6.5396745      34.5967545
       215    1       51.6477085      -7.7627840      35.7576195
       216    1       55.2969265      -8.9858935      36.9184845
       217    1       56.7193030     -11.4449000      36.8168390
       218    1       57.8625555      -9.0944350      35.6994820
       219    1       58.9461450     -10.2090030      38.0793495
       220    1       36.6002890      -9.0022620      53.9117560
       221    1       35.1779125      -6.5432555      54.0134020
       222    1       36.2615025      -7.6578235      56.3932695
       223    1       37.6838790     -10.1168305      56.2916240
       224    1       40.2495075     -10.2253715      55.0726210
       225    1       38.8271310      -7.7663650      55.1742670
       226    1       39.9107210      -8.8809330      57.5541345
       227    1       43.8987260     -11.4484810      56.2334860
       228    1       42.4763495      -8.9894745      56.3351320
       229    1       46.1255680     -10.2125840      57.4959970
       230    1       29.3615150      -3.0910090      48.0928010
       231    1       34.4331100      -6.7731255      49.1520205
       232    1       33.0107335      -4.3141190      49.2536660
       233    1       34.0943230      -5.4286870      51.6335340
       234    1       35.5166995      -7.8876935      51.5318885
       235    1       38.0823280      -7.9962350      50.3128855
       236    1       36.6599520      -5.5372285      50.4145310
       237    1       37.7435415      -6.6517965      52.7943990
       238    1       39.1659180      -9.1108030      52.6927535
       239    1       41.7315465      -9.2193445      51.4737505
       240    1       40.3091700      -6.7603380      51.5753960
       241    1       41.3927600      -7.8749060      53.9552640
       242    1       42.8151365     -10.3339130      53.8536185
       243    1       45.3807650     -10.4424540      52.6346155
       244    1       43.9583885      -7.9834475      52.7362615
       245    1       45.0419785      -9.0980155      55.1161290
       246    1       46.4643550     -11.5570225      55.0144835
       247    1       49.0299835     -11.6655635      53.7954805
       248    1       47.6076070      -9.2065570      53.8971265
       249    1       48.6911970     -10.3211255      56.2769940
       250    1       50.1135735     -12.7801320      56.1753485
       251    1       51.2568255     -10.4296665      55.0579915
       252    1       29.7003015      -4.4354475      45.6112875
       253    1       32.2659305      -4.5439885      44.3922850
       254    1       30.8435540      -2.0849820      44.4939305
       255    1       31.9271435      -3.1995505      46.8737985
       256    1       33.3495200      -5.6585570      46.7721525
       257    1       35.9151490      -5.7670985      45.5531500
       258    1       34.4927725      -3.3080915      45.6547955
       259    1       35.5763620      -4.4226600      48.0346635
       260    1       36.9987385      -6.8816665      47.9330175
       261    1       39.5643675      -6.9902080      46.7140150
       262    1       38.1419910      -4.5312015      46.8156605
       263    1       39.2255805      -5.6457695      49.1955285
       264    1       40.6479570      -8.1047760      49.0938825
       265    1       43.2135860      -8.2133175      47.8748800
       266    1       41.7912095      -5.7543110      47.9765255
       267    1       42.8747990      -6.8688790      50.3563935
       268    1       44.2971755      -9.3278855      50.2547480
       269    1       46.8628040      -9.4364270      49.0357450
       270    1       45.4404280      -6.9774205      49.1373905
       271    1       46.5240175      -8.0919885      51.5172585
       272    1       47.9463940     -10.5509955      51.4156130
       273    1       50.5120225     -10.6595365      50.1966100
       274    1       49.0896460      -8.2005300      50.2982555
       275    1       50.1732360      -9.3150980      52.6781235
       276    1       51.5956125     -11.7741050      52.5764780
       277    1       54.1612410     -11.8826460      51.3574750
       278    1       52.7388645      -9.4236395      51.4591205
       279    1       53.8224545     -10.5382080      53.8389885
       280    1       30.0987510      -2.3148520      39.6325490
       281    1       31.1823405      -3.4294205      42.0124170
       282    1       33.7479695      -3.5379615      40.7934140
       283    1       32.3255930      -1.0789550      40.8950600
       284    1       33.4091825      -2.1935235      43.2749275
       285    1       34.8315590      -4.6525300      43.1732820
       286    1       37.3971880      -4.7610710      41.9542790
       287    1       35.9748115      -2.3020645      42.0559250
       288    1       37.0584010      -3.4166330      44.4357925
       289    1       38.4807775      -5.8756395      44.3341470
       290    1       41.0464065      -5.9841810      43.1151445
       291    1       39.6240300      -3.5251740      43.2167900
       292    1       40.7076195      -4.6397425      45.5966580
       293    1       42.1299960      -7.0987490      45.4950120
       294    1       44.6956250      -7.2072905      44.2760095
       295    1       43.2732485      -4.7482840      44.3776550
       296    1       44.3568380      -5.8628520      46.7575230
       297    1       45.7792145      -8.3218585      46.6558770
       298    1       48.3448435      -8.4304000      45.4368745
       299    1       46.9224670      -5.9713935      45.5385200
       300    1       48.0060565      -7.0859615      47.9183880
       301    1       49.4284330      -9.5449680      47.8167420
       302    1       51.9940620      -9.6535095      46.5977395
       303    1       50.5716855      -7.1945030      46.6993850
       304    1       51.6552750      -8.3090710      49.0792530
       305    1       53.0776515     -10.7680780      48.9776070
       306    1       55.6432800     -10.8766190      47.7586045
       307    1       54.2209040      -8.4176125      47.8602500
       308    1       55.3044935      -9.5321805      50.2401180
       309    1       31.5807900      -1.3088250      36.0336785
       310    1       31.2420035       0.0356130      38.5151920
       311    1       32.6643800      -2.4233935      38.4135465
       312    1       35.2300085      -2.5319345      37.1945435
       313    1       33.8076320      -0.0729280      37.2961890
       314    1       34.8912220      -1.1874965      39.6760570
       315    1       36.3135985      -3.6465030      39.5744115
       316    1       38.8792270      -3.7550440      38.3554085
       317    1       37.4568505      -1.2960375      38.4570545
       318    1       38.5404405      -2.4106060      40.8369220
       319    1       39.9628165      -4.8696125      40.7352765
       320    1       42.5284455      -4.9781535      39.5162735
       321    1       41.1060690      -2.5191470      39.6179195
       322    1       42.1896585      -3.6337155      41.9977870
       323    1       43.6120350      -6.0927220      41.8961415
       324    1       46.1776640      -6.2012635      40.6771385
       325    1       44.7552875      -3.7422565      40.7787845
       326    1       45.8388770      -4.8568250      43.1586520
       327    1       47.2612535      -7.3158315      43.0570065
       328    1       49.8268825      -7.4243730      41.8380035
       329    1       48.4045060      -4.9653665      41.9396495
       330    1       49.4880955      -6.0799345      44.3195170
       331    1       50.9104720      -8.5389410      44.2178715
       332    1       53.4761010      -8.6474825      42.9988690
       333    1       52.0537245      -6.1884760      43.1005145
       334    1       53.1373140      -7.3030440      45.4803825
       335    1       54.5596905      -9.7620505      45.3787365
       336    1       57.1253195      -9.8705920      44.1597340
       337    1       55.7029430      -7.4115855      44.2613795
       338    1       56.7865325      -8.5261535      46.6412475
       339    1       33.0628290      -0.3027980      32.4348080
       340    1       32.7240425       1.0416405      34.9163215
       341    1       34.1464190      -1.4173665      34.8146755
       342    1       36.7120475      -1.5259075      33.5956730
       343    1       35.2896710       0.9330990      33.6973185
       344    1       36.3732610      -0.1814695      36.0771865
       345    1       37.7956375      -2.6404760      35.9755410
       346    1       40.3612660      -2.7490170      34.7565380
       347    1       38.9388895      -0.2900105      34.8581835
       348    1       40.0224795      -1.4045790      37.2380515
       349    1       41.4448560      -3.8635855      37.1364060
       350    1       44.0104845      -3.9721265      35.9174030
       351    1       42.5881080      -1.5131200      36.0190485
       352    1       43.6716980      -2.6276885      38.3989165
       353    1       45.0940745      -5.0866950      38.2972710
       354    1       47.6597030      -5.1952360      37.0782680
       355    1       46.2373265      -2.7362295      37.1799140
       356    1       47.3209165      -3.8507980      39.5597815
       357    1       48.7432925      -6.3098045      39.4581360
       358    1       51.3089215      -6.4183460      38.2391330
       359    1       49.8865450      -3.9593390      38.3407790
       360    1       50.9701345      -5.0739075      40.7206465
       361    1       52.3925110      -7.5329140      40.6190010
       362    1       54.9581400      -7.6414555      39.3999980
       363    1       53.5357635      -5.1824490      39.5016440
       364    1       54.6193530      -6.2970170      41.8815115
       365    1       56.0417295      -8.7560235      41.7798660
       366    1       58.6073585      -8.8645650      40.5608630
       367    1       57.1849820      -6.4055585      40.6625090
       368    1       58.2685715      -7.5201265      43.0423765
       369    1       60.8342005      -7.6286680      41.8233740
       370    1       34.2060815       2.0476675      31.3174510
       371    1       35.6284580      -0.4113390      31.2158050
       372    1       37.8553000       0.8245580      32.4783160
       373    1       39.2776765      -1.6344490      32.3766700
       374    1       40.4209285       0.7160165      31.2593130
       375    1       41.5045185      -0.3985520      33.6391810
       376    1       42.9268950      -2.8575585      33.5375350
       377    1       45.4925235      -2.9660995      32.3185325
       378    1       44.0701470      -0.5070930      32.4201780
       379    1       45.1537370      -1.6216615      34.8000460
       380    1       46.5761135      -4.0806680      34.6984005
       381    1       49.1417420      -4.1892090      33.4793975
       382    1       47.7193655      -1.7302025      33.5810430
       383    1       48.8029555      -2.8447710      35.9609110
       384    1       50.2253320      -5.3037775      35.8592655
       385    1       52.7909605      -5.4123185      34.6402625
       386    1       51.3685840      -2.9533120      34.7419080
       387    1       52.4521740      -4.0678805      37.1217760
       388    1       53.8745505      -6.5268870      37.0201305
       389    1       56.4401790      -6.6354285      35.8011275
       390    1       55.0178025      -4.1764215      35.9027730
       391    1       56.1013925      -5.2909900      38.2826410
       392    1       57.5237685      -7.7499965      38.1809955
       393    1       60.0893975      -7.8585380      36.9619925
       394    1       58.6670210      -5.3995315      37.0636385
       395    1       59.7506105      -6.5140995      39.4435060
       396    1       62.3162395      -6.6226410      38.2245035
       397    1       46.6357760      -0.6156345      31.2011755
       398    1       50.2849945      -1.8387440      32.3620405
       399    1       53.9342130      -3.0618535      33.5229055
       400    1       55.3565895      -5.5208600      33.4212595
       401    1       57.5834315      -4.2849630      34.6837705
       402    1       59.0058080      -6.7439695      34.5821250
       403    1       61.2326500      -5.5080725      35.8446355
       404    1       62.6550265      -7.9670790      35.7429900
       405    1       35.9227155      -6.3133855      58.8747830
       406    1       34.5003390      -3.8543790      58.9764290
       407    1       38.1495575      -5.0774885      60.1372940
       408    1       33.7555360      -4.0842490      54.1150475
       409    1       32.3331595      -1.6252420      54.2166930
       410    1       33.4167495      -2.7398105      56.5965610
       411    1       34.8391260      -5.1988170      56.4949155
       412    1       37.4047545      -5.3073585      55.2759125
       413    1       35.9823780      -2.8483520      55.3775580
       414    1       37.0659680      -3.9629200      57.7574260
       415    1       38.4883445      -6.4219265      57.6557805
       416    1       41.0539730      -6.5304680      56.4367775
       417    1       39.6315965      -4.0714615      56.5384230
       418    1       40.7151865      -5.1860295      58.9182910
       419    1       42.1375630      -7.6450360      58.8166455
       420    1       44.7031915      -7.7535775      57.5976425
       421    1       43.2808150      -5.2945710      57.6992885
       422    1       31.5883570      -1.8551120      49.3553120
       423    1       31.2495700      -0.5106740      51.8368255
       424    1       32.6719465      -2.9696805      51.7351795
       425    1       35.2375755      -3.0782215      50.5161770
       426    1       33.8151990      -0.6192150      50.6178225
       427    1       34.8987885      -1.7337835      52.9976905
       428    1       36.3211650      -4.1927900      52.8960445
       429    1       38.8867940      -4.3013315      51.6770420
       430    1       37.4644175      -1.8423245      51.7786875
       431    1       38.5480070      -2.9568930      54.1585555
       432    1       39.9703835      -5.4158995      54.0569095
       433    1       42.5360120      -5.5244410      52.8379070
       434    1       41.1136360      -3.0654345      52.9395525
       435    1       42.1972255      -4.1800025      55.3194205
       436    1       43.6196020      -6.6390090      55.2177750
       437    1       46.1852305      -6.7475505      53.9987720
       438    1       44.7628540      -4.2885440      54.1004175
       439    1       45.8464440      -5.4031120      56.4802855
       440    1       47.2688205      -7.8621185      56.3786400
       441    1       49.8344490      -7.9706600      55.1596370
       442    1       48.4120725      -5.5116535      55.2612825
       443    1       30.5047670      -0.7405440      46.9754440
       444    1       33.0703960      -0.8490850      45.7564410
       445    1       31.6480195       1.6099215      45.8580870
       446    1       32.7316090       0.4953530      48.2379545
       447    1       34.1539855      -1.9636535      48.1363090
       448    1       36.7196145      -2.0721945      46.9173060
       449    1       35.2972380       0.3868120      47.0189520
       450    1       36.3808275      -0.7277565      49.3988195
       451    1       37.8032040      -3.1867630      49.2971740
       452    1       40.3688330      -3.2953040      48.0781715
       453    1       38.9464565      -0.8362975      48.1798170
       454    1       40.0300460      -1.9508660      50.5596850
       455    1       41.4524225      -4.4098725      50.4580390
       456    1       44.0180515      -4.5184140      49.2390365
       457    1       42.5956750      -2.0594070      49.3406820