# Voronoi polycrystal with 6 grains

7681 atoms
1 atom types

0.0 50.0 xlo xhi
0.0 50.0 ylo yhi
0.0 50.0 zlo zhi

Masses

1 26.98153860  # Al

Atoms  # atomic

1 1 43.3061555 -22.871603 46.060633
2 1 42.9673685 -21.527165 48.5421465
3 1 41.544992 -19.068158 48.643792
4 1 45.1942105 -20.291268 49.804657
5 1 35.7285945 -15.615912 42.7231915
6 1 40.800189 -19.298028 43.782411
7 1 39.3778125 -16.8390215 43.8840565
8 1 40.4614025 -17.95359 46.2639245
9 1 41.883779 -20.4125965 46.1622785
10 1 44.4494075 -20.5211375 44.943276
11 1 43.027031 -18.062131 45.0449215
12 1 44.110621 -19.1766995 47.4247895
13 1 45.5329975 -21.635706 47.3231435
14 1 48.098626 -21.7442475 46.104141
15 1 46.6762495 -19.2852405 46.2057865
16 1 47.7598395 -20.399809 48.5856545
17 1 38.294223 -15.7244535 41.5041885
18 1 41.9434415 -16.947563 42.6650535
19 1 45.59266 -18.1706725 43.8259185
20 1 48.1582885 -18.2792135 42.606916
21 1 49.2418785 -19.393782 44.9867835
22 1 40.1226155 -16.6091515 48.745438
23 1 38.700239 -14.150145 48.8470835
24 1 39.783829 -15.2647135 51.2269515
25 1 41.2062055 -17.72372 51.1253055
26 1 43.771834 -17.832261 49.906303
27 1 42.3494575 -15.3732545 50.0079485
28 1 43.4330475 -16.487823 52.3878165
29 1 47.4210525 -19.055371 51.067168
30 1 45.998676 -16.596364 51.1688135
31 1 49.6478945 -17.8194735 52.3296785
32 1 34.306218 -13.1569055 42.824837
33 1 32.8838415 -10.697899 42.9264825
34 1 33.967431 -11.812467 45.3063505
35 1 35.3898075 -14.271474 45.204705
36 1 37.9554365 -14.380015 43.985702
37 1 36.53306 -11.9210085 44.087348
38 1 37.6166495 -13.0355765 46.4672155
39 1 39.039026 -15.4945835 46.36557
40 1 41.6046545 -15.6031245 45.146567
41 1 40.1822785 -13.144118 45.248213
42 1 41.265868 -14.2586865 47.6280805
43 1 42.6882445 -16.717693 47.526435
44 1 45.253873 -16.826234 46.307432
45 1 43.8314965 -14.3672275 46.409078
46 1 44.9150865 -15.481796 48.7889455
47 1 46.337463 -17.9408025 48.6873
48 1 48.9030915 -18.0493435 47.468297
49 1 47.480715 -15.590337 47.569943
50 1 48.564305 -16.7049055 49.9498105
51 1 51.1299335 -16.8134465 48.730808
52 1 30.716662 -8.4687625 38.166747
53 1 31.8002515 -9.5833305 40.546615
54 1 33.222628 -12.042337 40.444969
55 1 35.788257 -12.1508785 39.2259665
56 1 34.3658805 -9.691872 39.327612
57 1 35.44947 -10.80644 41.70748
58 1 36.8718465 -13.2654465 41.6058345
59 1 39.4374755 -13.373988 40.3868315
60 1 38.015099 -10.9149815 40.488477
61 1 39.0986885 -12.0295495 42.868345
62 1 40.521065 -14.4885565 42.7666995
63 1 43.086694 -14.5970975 41.5476965
64 1 41.6643175 -12.138091 41.649342
65 1 42.747907 -13.2526595 44.02921
66 1 44.1702835 -15.711666 43.9275645
67 1 46.7359125 -15.820207 42.7085615
68 1 45.313536 -13.3612005 42.810207
69 1 46.3971255 -14.475769 45.190075
70 1 47.819502 -16.9347755 45.0884295
71 1 50.3851305 -17.0433165 43.8694265
72 1 48.9627545 -14.58431 43.9710725
73 1 50.046344 -15.6988785 46.35094
74 1 51.4687205 -18.157885 46.2492945
75 1 52.6119725 -15.8074195 45.1319375
76 1 33.2822905 -8.5773035 36.9477445
77 1 36.931509 -9.800413 38.1086095
78 1 40.5807275 -11.0235225 39.2694745
79 1 43.1463565 -11.132064 38.0504715
80 1 44.229946 -12.246632 40.4303395
81 1 45.6523225 -14.705639 40.3286935
82 1 46.795575 -12.3551735 39.2113365
83 1 47.8791645 -13.469742 41.5912045
84 1 49.301541 -15.9287485 41.489559
85 1 51.86717 -16.0372895 40.270556
86 1 50.4447935 -13.578283 40.3722015
87 1 51.528383 -14.6928515 42.7520695
88 1 52.9507595 -17.151858 42.650424
89 1 54.094012 -14.8013925 41.5330665
90 1 53.010422 -13.6868245 39.153199
91 1 39.445042 -13.920275 53.708465
92 1 38.0226655 -11.4612685 53.8101105
93 1 41.671884 -12.684378 54.9709755
94 1 37.2778625 -11.6911385 48.948729
95 1 35.855486 -9.232132 49.050375
96 1 36.939076 -10.3467 51.4302425
97 1 38.3614525 -12.805707 51.328597
98 1 40.927081 -12.914248 50.109594
99 1 39.5047045 -10.4552415 50.21124
100 1 40.5882945 -11.56981 52.5911075
101 1 42.010671 -14.0288165 52.489462
102 1 44.5762995 -14.1373575 51.270459
103 1 43.153923 -11.678351 51.372105
104 1 44.237513 -12.7929195 53.7519725
105 1 45.6598895 -15.251926 53.650327
106 1 48.225518 -15.360467 52.431324
107 1 46.8031415 -12.9014605 52.53297
108 1 47.8867315 -14.016029 54.9128375
109 1 50.45236 -14.12457 53.693835
110 1 31.461465 -8.2388925 43.0281285
111 1 30.0390885 -5.7798855 43.129774
112 1 31.122678 -6.894454 45.509642
113 1 32.5450545 -9.3534605 45.407996
114 1 35.1106835 -9.462002 44.1889935
115 1 33.688307 -7.0029955 44.290639
116 1 34.7718965 -8.1175635 46.670507
117 1 36.194273 -10.57657 46.5688615
118 1 38.759902 -10.6851115 45.3498585
119 1 37.3375255 -8.226105 45.451504
120 1 38.421115 -9.340673 47.831372
121 1 39.8434915 -11.7996795 47.7297265
122 1 42.4091205 -11.908221 46.5107235
123 1 40.986744 -9.4492145 46.612369
124 1 42.0703335 -10.5637825 48.992237
125 1 43.49271 -13.0227895 48.8905915
126 1 46.0583385 -13.1313305 47.6715885
127 1 44.635962 -10.672324 47.7732345
128 1 45.719552 -11.7868925 50.153102
129 1 47.1419285 -14.245899 50.0514565
130 1 49.707557 -14.35444 48.8324535
131 1 48.2851805 -11.8954335 48.9340995
132 1 49.3687705 -13.010002 51.313967
133 1 50.791147 -15.4690085 51.2123215
134 1 51.934399 -13.118543 50.0949645
135 1 29.2942855 -6.0097555 38.268393
136 1 28.9554985 -4.6653175 40.7499065
137 1 30.377875 -7.124324 40.6482605
138 1 32.943504 -7.232865 39.429258
139 1 31.5211275 -4.7738585 39.5309035
140 1 32.604717 -5.888427 41.9107715
141 1 34.0270935 -8.3474335 41.8091255
142 1 36.5927225 -8.455975 40.590123
143 1 35.170346 -5.996968 40.6917685
144 1 36.2539355 -7.1115365 43.0716365
145 1 37.676312 -9.570543 42.9699905
146 1 40.241941 -9.6790845 41.750988
147 1 38.8195645 -7.220078 41.8526335
148 1 39.903154 -8.334646 44.2325015
149 1 41.3255305 -10.7936525 44.1308555
150 1 43.8911595 -10.902194 42.911853
151 1 42.468783 -8.4431875 43.0134985
152 1 43.5523725 -9.5577555 45.3933665
153 1 44.974749 -12.016762 45.291721
154 1 47.540378 -12.1253035 44.072718
155 1 46.1180015 -9.666297 44.1743635
156 1 47.201591 -10.780865 46.5542315
157 1 48.6239675 -13.239872 46.452586
158 1 51.1895965 -13.348413 45.233583
159 1 49.76722 -10.8894065 45.3352285
160 1 50.8508095 -12.003975 47.7150965
161 1 52.273186 -14.4629815 47.613451
162 1 53.4164385 -12.112516 46.4960935
163 1 30.437538 -3.6592905 37.1510355
164 1 31.8599145 -6.118297 37.04939
165 1 34.425543 -6.226838 35.830387
166 1 33.0031665 -3.7678315 35.932033
167 1 34.0867565 -4.8824 38.3119005
168 1 35.5091325 -7.3414065 38.210255
169 1 38.0747615 -7.4499475 36.991252
170 1 36.652385 -4.990941 37.092898
171 1 37.7359745 -6.1055095 39.4727655
172 1 39.158351 -8.564516 39.37112
173 1 41.72398 -8.6730575 38.1521175
174 1 40.3016035 -6.2140505 38.253763
175 1 41.385193 -7.328619 40.633631
176 1 42.8075695 -9.7876255 40.531985
177 1 45.3731985 -9.896167 39.3129825
178 1 43.950822 -7.4371605 39.414628
179 1 45.0344115 -8.5517285 41.794496
180 1 46.456788 -11.010735 41.69285
181 1 49.022417 -11.1192765 40.4738475
182 1 47.6000405 -8.66027 40.575493
183 1 48.68363 -9.774838 42.955361
184 1 50.1060065 -12.2338445 42.853715
185 1 52.6716355 -12.342386 41.6347125
186 1 51.249259 -9.8833795 41.736358
187 1 52.3328485 -10.9979475 44.116226
188 1 53.755225 -13.4569545 44.01458
189 1 56.320854 -13.5654955 42.7955775
190 1 54.8984775 -11.106489 42.897223
191 1 55.982067 -12.2210575 45.277091
192 1 31.919577 -2.6532635 33.552165
193 1 35.5687955 -3.876373 34.71303
194 1 38.134424 -3.984914 33.4940275
195 1 39.218014 -5.0994825 35.873895
196 1 40.6403905 -7.558489 35.7722495
197 1 41.7836425 -5.2080235 34.6548925
198 1 42.8672325 -6.322592 37.03476
199 1 44.2896085 -8.7815985 36.9331145
200 1 45.432861 -6.431133 35.8157575
201 1 46.5164505 -7.5457015 38.195625
202 1 47.938827 -10.004708 38.0939795
203 1 50.504456 -10.1132495 36.8749765
204 1 49.0820795 -7.654243 36.9766225
205 1 50.165669 -8.768811 39.35649
206 1 51.5880455 -11.2278175 39.2548445
207 1 54.1536745 -11.336359 38.035842
208 1 52.731298 -8.8773525 38.1374875
209 1 53.8148875 -9.9919205 40.5173555
210 1 55.237264 -12.450927 40.4157095
211 1 57.802893 -12.5594685 39.196707
212 1 56.3805165 -10.100462 39.2983525
213 1 57.464106 -11.21503 41.6782205
214 1 47.99849 -6.5396745 34.5967545
215 1 51.6477085 -7.762784 35.7576195
216 1 55.2969265 -8.9858935 36.9184845
217 1 56.719303 -11.4449 36.816839
218 1 57.8625555 -9.094435 35.699482
219 1 58.946145 -10.209003 38.0793495
220 1 36.600289 -9.002262 53.911756
221 1 35.1779125 -6.5432555 54.013402
222 1 36.2615025 -7.6578235 56.3932695
223 1 37.683879 -10.1168305 56.291624
224 1 40.2495075 -10.2253715 55.072621
225 1 38.827131 -7.766365 55.174267
226 1 39.910721 -8.880933 57.5541345
227 1 43.898726 -11.448481 56.233486
228 1 42.4763495 -8.9894745 56.335132
229 1 46.125568 -10.212584 57.495997
230 1 29.361515 -3.091009 48.092801
231 1 34.43311 -6.7731255 49.1520205
232 1 33.0107335 -4.314119 49.253666
233 1 34.094323 -5.428687 51.633534
234 1 35.5166995 -7.8876935 51.5318885
235 1 38.082328 -7.996235 50.3128855
236 1 36.659952 -5.5372285 50.414531
237 1 37.7435415 -6.6517965 52.794399
238 1 39.165918 -9.110803 52.6927535
239 1 41.7315465 -9.2193445 51.4737505
240 1 40.30917 -6.760338 51.575396
241 1 41.39276 -7.874906 53.955264
242 1 42.8151365 -10.333913 53.8536185
243 1 45.380765 -10.442454 52.6346155
244 1 43.9583885 -7.9834475 52.7362615
245 1 45.0419785 -9.0980155 55.116129
246 1 46.464355 -11.5570225 55.0144835
247 1 49.0299835 -11.6655635 53.7954805
248 1 47.607607 -9.206557 53.8971265
249 1 48.691197 -10.3211255 56.276994
250 1 50.1135735 -12.780132 56.1753485
251 1 51.2568255 -10.4296665 55.0579915
252 1 29.7003015 -4.4354475 45.6112875
253 1 32.2659305 -4.5439885 44.392285
254 1 30.843554 -2.084982 44.4939305
255 1 31.9271435 -3.1995505 46.8737985
256 1 33.34952 -5.658557 46.7721525
257 1 35.915149 -5.7670985 45.55315
258 1 34.4927725 -3.3080915 45.6547955
259 1 35.576362 -4.42266 48.0346635
260 1 36.9987385 -6.8816665 47.9330175
261 1 39.5643675 -6.990208 46.714015
262 1 38.141991 -4.5312015 46.8156605
263 1 39.2255805 -5.6457695 49.1955285
264 1 40.647957 -8.104776 49.0938825
265 1 43.213586 -8.2133175 47.87488
266 1 41.7912095 -5.754311 47.9765255
267 1 42.874799 -6.868879 50.3563935
268 1 44.2971755 -9.3278855 50.254748
269 1 46.862804 -9.436427 49.035745
270 1 45.440428 -6.9774205 49.1373905
271 1 46.5240175 -8.0919885 51.5172585
272 1 47.946394 -10.5509955 51.415613
273 1 50.5120225 -10.6595365 50.19661
274 1 49.089646 -8.20053 50.2982555
275 1 50.173236 -9.315098 52.6781235
276 1 51.5956125 -11.774105 52.576478
277 1 54.161241 -11.882646 51.357475
278 1 52.7388645 -9.4236395 51.4591205
279 1 53.8224545 -10.538208 53.8389885
280 1 30.098751 -2.314852 39.632549
281 1 31.1823405 -3.4294205 42.012417
282 1 33.7479695 -3.5379615 40.793414
283 1 32.325593 -1.078955 40.89506
284 1 33.4091825 -2.1935235 43.2749275
285 1 34.831559 -4.65253 43.173282
286 1 37.397188 -4.761071 41.954279
287 1 35.9748115 -2.3020645 42.055925
288 1 37.058401 -3.416633 44.4357925
289 1 38.4807775 -5.8756395 44.334147
290 1 41.0464065 -5.984181 43.1151445
291 1 39.62403 -3.525174 43.21679
292 1 40.7076195 -4.6397425 45.596658
293 1 42.129996 -7.098749 45.495012
294 1 44.695625 -7.2072905 44.2760095
295 1 43.2732485 -4.748284 44.377655
296 1 44.356838 -5.862852 46.757523
297 1 45.7792145 -8.3218585 46.655877
298 1 48.3448435 -8.4304 45.4368745
299 1 46.922467 -5.9713935 45.53852
300 1 48.0060565 -7.0859615 47.918388
301 1 49.428433 -9.544968 47.816742
302 1 51.994062 -9.6535095 46.5977395
303 1 50.5716855 -7.194503 46.699385
304 1 51.655275 -8.309071 49.079253
305 1 53.0776515 -10.768078 48.977607
306 1 55.64328 -10.876619 47.7586045
307 1 54.220904 -8.4176125 47.86025
308 1 55.3044935 -9.5321805 50.240118
309 1 31.58079 -1.308825 36.0336785
310 1 31.2420035 0.035613 38.515192
311 1 32.66438 -2.4233935 38.4135465
312 1 35.2300085 -2.5319345 37.1945435
313 1 33.807632 -0.072928 37.296189
314 1 34.891222 -1.1874965 39.676057
315 1 36.3135985 -3.646503 39.5744115
316 1 38.879227 -3.755044 38.3554085
317 1 37.4568505 -1.2960375 38.4570545
318 1 38.5404405 -2.410606 40.836922
319 1 39.9628165 -4.8696125 40.7352765
320 1 42.5284455 -4.9781535 39.5162735
321 1 41.106069 -2.519147 39.6179195
322 1 42.1896585 -3.6337155 41.997787
323 1 43.612035 -6.092722 41.8961415
324 1 46.177664 -6.2012635 40.6771385
325 1 44.7552875 -3.7422565 40.7787845
326 1 45.838877 -4.856825 43.158652
327 1 47.2612535 -7.3158315 43.0570065
328 1 49.8268825 -7.424373 41.8380035
329 1 48.404506 -4.9653665 41.9396495
330 1 49.4880955 -6.0799345 44.319517
331 1 50.910472 -8.538941 44.2178715
332 1 53.476101 -8.6474825 42.998869
333 1 52.0537245 -6.188476 43.1005145
334 1 53.137314 -7.303044 45.4803825
335 1 54.5596905 -9.7620505 45.3787365
336 1 57.1253195 -9.870592 44.159734
337 1 55.702943 -7.4115855 44.2613795
338 1 56.7865325 -8.5261535 46.6412475
339 1 33.062829 -0.302798 32.434808
340 1 32.7240425 1.0416405 34.9163215
341 1 34.146419 -1.4173665 34.8146755
342 1 36.7120475 -1.5259075 33.595673
343 1 35.289671 0.933099 33.6973185
344 1 36.373261 -0.1814695 36.0771865
345 1 37.7956375 -2.640476 35.975541
346 1 40.361266 -2.749017 34.756538
347 1 38.9388895 -0.2900105 34.8581835
348 1 40.0224795 -1.404579 37.2380515
349 1 41.444856 -3.8635855 37.136406
350 1 44.0104845 -3.9721265 35.917403
351 1 42.588108 -1.51312 36.0190485
352 1 43.671698 -2.6276885 38.3989165
353 1 45.0940745 -5.086695 38.297271
354 1 47.659703 -5.195236 37.078268
355 1 46.2373265 -2.7362295 37.179914
356 1 47.3209165 -3.850798 39.5597815
357 1 48.7432925 -6.3098045 39.458136
358 1 51.3089215 -6.418346 38.239133
359 1 49.886545 -3.959339 38.340779
360 1 50.9701345 -5.0739075 40.7206465
361 1 52.392511 -7.532914 40.619001
362 1 54.95814 -7.6414555 39.399998
363 1 53.5357635 -5.182449 39.501644
364 1 54.619353 -6.297017 41.8815115
365 1 56.0417295 -8.7560235 41.779866
366 1 58.6073585 -8.864565 40.560863
367 1 57.184982 -6.4055585 40.662509
368 1 58.2685715 -7.5201265 43.0423765
369 1 60.8342005 -7.628668 41.823374
370 1 34.2060815 2.0476675 31.317451
371 1 35.628458 -0.411339 31.215805
372 1 37.8553 0.824558 32.478316
373 1 39.2776765 -1.634449 32.37667
374 1 40.4209285 0.7160165 31.259313
375 1 41.5045185 -0.398552 33.639181
376 1 42.926895 -2.8575585 33.537535
377 1 45.4925235 -2.9660995 32.3185325
378 1 44.070147 -0.507093 32.420178
379 1 45.153737 -1.6216615 34.800046
380 1 46.5761135 -4.080668 34.6984005
381 1 49.141742 -4.189209 33.4793975
382 1 47.7193655 -1.7302025 33.581043
383 1 48.8029555 -2.844771 35.960911
384 1 50.225332 -5.3037775 35.8592655
385 1 52.7909605 -5.4123185 34.6402625
386 1 51.368584 -2.953312 34.741908
387 1 52.452174 -4.0678805 37.121776
388 1 53.8745505 -6.526887 37.0201305
389 1 56.440179 -6.6354285 35.8011275
390 1 55.0178025 -4.1764215 35.902773
391 1 56.1013925 -5.29099 38.282641
392 1 57.5237685 -7.7499965 38.1809955
393 1 60.0893975 -7.858538 36.9619925
394 1 58.667021 -5.3995315 37.0636385
395 1 59.7506105 -6.5140995 39.443506
396 1 62.3162395 -6.622641 38.2245035
397 1 46.635776 -0.6156345 31.2011755
398 1 50.2849945 -1.838744 32.3620405
399 1 53.934213 -3.0618535 33.5229055
400 1 55.3565895 -5.52086 33.4212595
401 1 57.5834315 -4.284963 34.6837705
402 1 59.005808 -6.7439695 34.582125
403 1 61.23265 -5.5080725 35.8446355
404 1 62.6550265 -7.967079 35.74299
405 1 35.9227155 -6.3133855 58.874783
406 1 34.500339 -3.854379 58.976429
407 1 38.1495575 -5.0774885 60.137294
408 1 33.755536 -4.084249 54.1150475
409 1 32.3331595 -1.625242 54.216693
410 1 33.4167495 -2.7398105 56.596561
411 1 34.839126 -5.198817 56.4949155
412 1 37.4047545 -5.3073585 55.2759125
413 1 35.982378 -2.848352 55.377558
414 1 37.065968 -3.96292 57.757426
415 1 38.4883445 -6.4219265 57.6557805
416 1 41.053973 -6.530468 56.4367775
417 1 39.6315965 -4.0714615 56.538423
418 1 40.7151865 -5.1860295 58.918291
419 1 42.137563 -7.645036 58.8166455
420 1 44.7031915 -7.7535775 57.5976425
421 1 43.280815 -5.294571 57.6992885
422 1 31.588357 -1.855112 49.355312
423 1 31.24957 -0.510674 51.8368255
424 1 32.6719465 -2.9696805 51.7351795
425 1 35.2375755 -3.0782215 50.516177
426 1 33.815199 -0.619215 50.6178225
427 1 34.8987885 -1.7337835 52.9976905
428 1 36.321165 -4.19279 52.8960445
429 1 38.886794 -4.3013315 51.677042
430 1 37.4644175 -1.8423245 51.7786875
431 1 38.548007 -2.956893 54.1585555
432 1 39.9703835 -5.4158995 54.0569095
433 1 42.536012 -5.524441 52.837907
434 1 41.113636 -3.0654345 52.9395525
435 1 42.1972255 -4.1800025 55.3194205
436 1 43.619602 -6.639009 55.217775
437 1 46.1852305 -6.7475505 53.998772
438 1 44.762854 -4.288544 54.1004175
439 1 45.846444 -5.403112 56.4802855
440 1 47.2688205 -7.8621185 56.37864
441 1 49.834449 -7.97066 55.159637
442 1 48.4120725 -5.5116535 55.2612825
443 1 30.504767 -0.740544 46.975444
444 1 33.070396 -0.849085 45.756441
445 1 31.6480195 1.6099215 45.858087
446 1 32.731609 0.495353 48.2379545
447 1 34.1539855 -1.9636535 48.136309
448 1 36.7196145 -2.0721945 46.917306
449 1 35.297238 0.386812 47.018952
450 1 36.3808275 -0.7277565 49.3988195
451 1 37.803204 -3.186763 49.297174
452 1 40.368833 -3.295304 48.0781715
453 1 38.9464565 -0.8362975 48.179817
454 1 40.030046 -1.950866 50.559685
455 1 41.4524225 -4.4098725 50.458039
456 1 44.0180515 -4.518414 49.2390365
457 1 42.595675 -2.059407 49.340682
458 1 43.6792645 -3.1739755 51.72055
459 1 45.101641 -5.632982 51.618904
460 1 47.66727 -5.7415235 50.3999015
461 1 46.2448935 -3.282517 50.501547
462 1 47.328483 -4.397085 52.881415
463 1 48.7508595 -6.8560915 52.779769
464 1 51.316488 -6.964633 51.5607665
465 1 49.894112 -4.5056265 51.662412
466 1 50.9777015 -5.6201945 54.04228
467 1 52.400078 -8.079201 53.940634
468 1 54.9657065 -8.1877425 52.7216315
469 1 53.54333 -5.728736 52.823277
470 1 31.986806 0.265483 43.3765735
471 1 34.552435 0.156942 42.1575705
472 1 33.1300585 2.6159485 42.2592165
473 1 34.213648 1.50138 44.639084
474 1 35.6360245 -0.9576265 44.5374385
475 1 38.2016535 -1.0661675 43.3184355
476 1 36.779277 1.392839 43.4200815
477 1 37.8628665 0.2782705 45.799949
478 1 39.285243 -2.180736 45.6983035
479 1 41.850872 -2.289277 44.4793005
480 1 40.4284955 0.1697295 44.5809465
481 1 41.512085 -0.944839 46.960814
482 1 42.9344615 -3.4038455 46.8591685
483 1 45.5000905 -3.5123865 45.6401655
484 1 44.077714 -1.05338 45.7418115
485 1 45.1613035 -2.1679485 48.121679
486 1 46.58368 -4.626955 48.0200335
487 1 49.149309 -4.7354965 46.8010305
488 1 47.7269325 -2.2764895 46.9026765
489 1 48.810522 -3.391058 49.282544
490 1 50.2328985 -5.8500645 49.1808985
491 1 52.7985275 -5.958606 47.961896
492 1 51.376151 -3.4995995 48.0635415
493 1 52.4597405 -4.6141675 50.4434095
494 1 53.882117 -7.073174 50.3417635
495 1 56.447746 -7.1817155 49.122761
496 1 55.0253695 -4.722709 49.2244065
497 1 56.108959 -5.837277 51.6042745
498 1 58.674588 -5.9458185 50.3852715
499 1 32.3852555 2.3860785 37.397835
500 1 33.4688455 1.27151 39.7777025
501 1 36.034474 1.162969 38.5587
502 1 34.6120975 3.6219755 38.6603455
503 1 35.6956875 2.5074075 41.0402135
504 1 37.118064 0.0484005 40.938568
505 1 39.6836925 -0.0601405 39.719565
506 1 38.261316 2.398866 39.8212105
507 1 39.344906 1.2842975 42.2010785
508 1 40.767282 -1.174709 42.099433
509 1 43.332911 -1.28325 40.88043
510 1 41.9105345 1.1757565 40.9820755
511 1 42.994124 0.061188 43.3619435
512 1 44.4165005 -2.3978185 43.260298
513 1 46.9821295 -2.5063595 42.041295
514 1 45.559753 -0.047353 42.142941
515 1 46.6433425 -1.1619215 44.5228085
516 1 48.065719 -3.620928 44.421163
517 1 50.631348 -3.729469 43.20216
518 1 49.2089715 -1.2704625 43.303806
519 1 50.292561 -2.385031 45.6836735
520 1 51.7149375 -4.8440375 45.582028
521 1 54.2805665 -4.952579 44.363025
522 1 52.85819 -2.493572 44.464671
523 1 53.9417795 -3.6081405 46.8445385
524 1 55.364156 -6.067147 46.742893
525 1 57.929785 -6.1756885 45.52389
526 1 56.5074085 -3.716682 45.625536
527 1 57.590998 -4.83125 48.0054035
528 1 59.0133745 -7.2902565 47.903758
529 1 60.156627 -4.9397915 46.786401
530 1 33.8672945 3.3921055 33.7989645
531 1 33.528508 4.736544 36.280478
532 1 34.9508845 2.2775375 36.178832
533 1 37.516513 2.168996 34.9598295
534 1 36.0941365 4.6280025 35.061475
535 1 37.1777265 3.5134345 37.441343
536 1 38.600103 1.0544275 37.339697
537 1 41.1657315 0.9458865 36.1206945
538 1 39.743355 3.404893 36.22234
539 1 40.826945 2.290325 38.602208
540 1 42.2493215 -0.168682 38.500562
541 1 44.81495 -0.277223 37.2815595
542 1 43.3925735 2.1817835 37.383205
543 1 44.4761635 1.067215 39.763073
544 1 45.89854 -1.3917915 39.6614275
545 1 48.4641685 -1.5003325 38.4424245
546 1 47.041792 0.958674 38.54407
547 1 48.125382 -0.1558945 40.923938
548 1 49.5477585 -2.614901 40.8222925
549 1 52.113387 -2.723442 39.6032895
550 1 50.6910105 -0.2644355 39.704935
551 1 51.7746 -1.379004 42.084803
552 1 53.1969765 -3.8380105 41.9831575
553 1 55.7626055 -3.9465515 40.7641545
554 1 54.340229 -1.487545 40.8658
555 1 55.4238185 -2.6021135 43.245668
556 1 56.846195 -5.06112 43.1440225
557 1 59.411824 -5.1696615 41.9250195
558 1 57.9894475 -2.7106545 42.0266655
559 1 59.073037 -3.825223 44.406533
560 1 60.4954135 -6.2842295 44.3048875
561 1 61.638666 -3.9337645 43.1875305
562 1 35.010547 5.742571 32.681607
563 1 36.4329235 3.2835645 32.5799615
564 1 38.9985525 3.175023 31.3609585
565 1 37.576176 5.6340295 31.4626045
566 1 38.6597655 4.5194615 33.842472
567 1 40.082142 2.060455 33.7408265
568 1 42.6477705 1.9519135 32.521824
569 1 41.2253945 4.41092 32.6234695
570 1 42.308984 3.296352 35.0033375
571 1 43.7313605 0.837345 34.9016915
572 1 46.296989 0.728804 33.682689
573 1 44.8746125 3.1878105 33.7843345
574 1 45.9582025 2.0732425 36.1642025
575 1 47.380579 -0.3857645 36.0625565
576 1 49.9462075 -0.4943055 34.843554
577 1 48.523831 1.964701 34.9451995
578 1 49.607421 0.8501325 37.3250675
579 1 51.0297975 -1.608874 37.2234215
580 1 53.595426 -1.717415 36.004419
581 1 52.1730495 0.7415915 36.1060645
582 1 53.2566395 -0.372977 38.4859325
583 1 54.679016 -2.8319835 38.3842865
584 1 57.2446445 -2.9405245 37.165284
585 1 55.822268 -0.481518 37.2669295
586 1 56.905858 -1.5960865 39.6467975
587 1 58.3282345 -4.055093 39.545152
588 1 60.893863 -4.163634 38.326149
589 1 59.4714865 -1.7046275 38.4277945
590 1 60.5550765 -2.819196 40.8076625
591 1 61.9774525 -5.2782025 40.706017
592 1 63.120705 -2.927737 39.5886595
593 1 45.2133995 1.8433725 31.302821
594 1 47.4402415 3.0792695 32.5653315
595 1 48.862618 0.6202625 32.463686
596 1 51.08946 1.85616 33.7261965
597 1 52.5118365 -0.602847 33.624551
598 1 53.6550885 1.7476185 32.507194
599 1 54.7386785 0.63305 34.887062
600 1 56.161055 -1.8259565 34.785416
601 1 57.304307 0.524509 33.668059
602 1 58.387897 -0.5900595 36.047927
603 1 59.8102735 -3.049066 35.946281
604 1 60.9535255 -0.6986005 34.828924
605 1 62.0371155 -1.813169 37.208792
606 1 63.459492 -4.2721755 37.107146
607 1 33.0779625 -1.3953725 59.0780745
608 1 31.655586 1.0636345 59.17972
609 1 36.727181 -2.618482 60.2389395
610 1 30.9107835 0.8337645 54.318339
611 1 31.994373 -0.280804 56.6982065
612 1 34.5600015 -0.389345 55.479204
613 1 33.1376255 2.0696615 55.5808495
614 1 34.221215 0.955093 57.9607175
615 1 35.6435915 -1.5039135 57.8590715
616 1 38.20922 -1.612455 56.640069
617 1 36.7868435 0.846552 56.7417145
618 1 37.8704335 -0.2680165 59.1215825
619 1 39.29281 -2.727023 59.0199365
620 1 41.8584385 -2.8355645 57.800934
621 1 40.436062 -0.3765575 57.9025795
622 1 42.9420285 -3.9501325 60.180802
623 1 45.507657 -4.058674 58.961799
624 1 44.0852805 -1.5996675 59.0634445
625 1 32.3928225 1.8397915 50.719468
626 1 32.0540355 3.1842295 53.2009815
627 1 33.476412 0.725223 53.099336
628 1 36.042041 0.616682 51.880333
629 1 34.6196645 3.0756885 51.981979
630 1 35.703254 1.96112 54.3618465
631 1 37.1256305 -0.4978865 54.260201
632 1 39.6912595 -0.6064275 53.0411985
633 1 38.268883 1.852579 53.142844
634 1 39.3524725 0.7380105 55.522712
635 1 40.774849 -1.720996 55.421066
636 1 43.3404775 -1.8295375 54.2020635
637 1 41.9181015 0.6294695 54.303709
638 1 43.001691 -0.485099 56.683577
639 1 44.4240675 -2.9441055 56.581931
640 1 46.989696 -3.052647 55.3629285
641 1 45.5673195 -0.59364 55.464574
642 1 46.6509095 -1.7082085 57.844442
643 1 48.073286 -4.167215 57.742796
644 1 50.6389145 -4.2757565 56.5237935
645 1 49.216538 -1.81675 56.625439
646 1 33.8748615 2.8458185 47.1205975
647 1 33.5360745 4.1902565 49.602111
648 1 34.958451 1.73125 49.5004655
649 1 37.52408 1.622709 48.2814625
650 1 36.1017035 4.0817155 48.3831085
651 1 37.185293 2.967147 50.762976
652 1 38.6076695 0.5081405 50.6613305
653 1 41.1732985 0.3995995 49.4423275
654 1 39.750922 2.858606 49.5439735
655 1 40.8345115 1.7440375 51.923841
656 1 42.256888 -0.714969 51.8221955
657 1 44.822517 -0.82351 50.6031925
658 1 43.4001405 1.6354965 50.7048385
659 1 44.48373 0.520928 53.084706
660 1 45.9061065 -1.9380785 52.9830605
661 1 48.4717355 -2.04662 51.7640575
662 1 47.049359 0.412387 51.8657035
663 1 48.1329485 -0.7021815 54.245571
664 1 49.555325 -3.161188 54.1439255
665 1 52.1209535 -3.2697295 52.924923
666 1 50.6985775 -0.8107225 53.0265685
667 1 51.782167 -1.925291 55.4064365
668 1 53.2045435 -4.3842975 55.3047905
669 1 55.770172 -4.492839 54.085788
670 1 54.3477955 -2.0338325 54.1874335
671 1 32.791272 3.960387 44.74073
672 1 35.3569005 3.8518455 43.521727
673 1 33.934524 6.310852 43.6233725
674 1 35.018114 5.196284 46.0032405
675 1 36.44049 2.737277 45.901595
676 1 39.006119 2.628736 44.682592
677 1 37.5837425 5.0877425 44.7842375
678 1 38.667332 3.973174 47.1641055
679 1 40.0897085 1.5141675 47.06246
680 1 42.6553375 1.4056265 45.843457
681 1 41.232961 3.864633 45.9451025
682 1 42.3165505 2.7500645 48.3249705
683 1 43.738927 0.291058 48.223325
684 1 46.304556 0.182517 47.004322
685 1 44.8821795 2.6415235 47.105968
686 1 45.965769 1.526955 49.4858355
687 1 47.3881455 -0.9320515 49.38419
688 1 49.9537745 -1.0405925 48.165187
689 1 48.531398 1.418414 48.266833
690 1 49.6149875 0.3038455 50.6467005
691 1 51.037364 -2.155161 50.545055
692 1 53.602993 -2.2637025 49.326052
693 1 52.1806165 0.1953045 49.427698
694 1 53.264206 -0.919264 51.8075655
695 1 54.6865825 -3.3782705 51.70592
696 1 57.2522115 -3.486812 50.486917
697 1 55.829835 -1.027805 50.588563
698 1 56.9134245 -2.1423735 52.9684305
699 1 58.335801 -4.60138 52.866785
700 1 59.4790535 -2.250915 51.749428
701 1 34.273311 4.966414 41.141859
702 1 36.8389395 4.8578725 39.9228565
703 1 35.416563 7.316879 40.024502
704 1 36.500153 6.202311 42.40437
705 1 37.9225295 3.7433045 42.302724
706 1 40.488158 3.634763 41.0837215
707 1 39.0657815 6.0937695 41.185367
708 1 40.1493715 4.9792015 43.565235
709 1 41.571748 2.5201945 43.463589
710 1 44.1373765 2.4116535 42.2445865
711 1 42.715 4.87066 42.346232
712 1 43.79859 3.7560915 44.7261
713 1 45.220966 1.297085 44.6244545
714 1 47.786595 1.188544 43.4054515
715 1 46.3642185 3.6475505 43.507097
716 1 47.447808 2.532982 45.886965
717 1 48.8701845 0.0739755 45.7853195
718 1 51.4358135 -0.0345655 44.5663165
719 1 50.013437 2.424441 44.667962
720 1 51.0970265 1.3098725 47.04783
721 1 52.519403 -1.149134 46.9461845
722 1 55.085032 -1.257675 45.7271815
723 1 53.6626555 1.2013315 45.828827
724 1 54.746245 0.086763 48.208695
725 1 56.1686215 -2.3722435 48.1070495
726 1 58.7342505 -2.480785 46.8880465
727 1 57.311874 -0.021778 46.9896925
728 1 58.3954635 -1.1363465 49.36956
729 1 59.81784 -3.595353 49.2679145
730 1 60.9610925 -1.2448875 48.1505575
731 1 35.75535 5.972441 37.5429885
732 1 38.3209785 5.8638995 36.3239855
733 1 36.898602 8.322906 36.4256315
734 1 37.982192 7.208338 38.805499
735 1 39.4045685 4.7493315 38.7038535
736 1 41.970197 4.64079 37.484851
737 1 40.5478205 7.0997965 37.5864965
738 1 41.6314105 5.9852285 39.9663645
739 1 43.053787 3.526222 39.8647185
740 1 45.6194155 3.4176805 38.645716
741 1 44.197039 5.876687 38.7473615
742 1 45.280629 4.762119 41.1272295
743 1 46.7030055 2.303112 41.0255835
744 1 49.268634 2.194571 39.806581
745 1 47.8462575 4.6535775 39.9082265
746 1 48.9298475 3.539009 42.2880945
747 1 50.352224 1.0800025 42.1864485
748 1 52.9178525 0.9714615 40.967446
749 1 51.495476 3.430468 41.0690915
750 1 52.579066 2.3158995 43.4489595
751 1 54.001442 -0.143107 43.3473135
752 1 56.567071 -0.251648 42.128311
753 1 55.1446945 2.2073585 42.2299565
754 1 56.228284 1.09279 44.6098245
755 1 57.6506605 -1.3662165 44.508179
756 1 60.2162895 -1.4747575 43.289176
757 1 58.793913 0.984249 43.3908215
758 1 59.8775025 -0.1303195 45.7706895
759 1 61.299879 -2.589326 45.669044
760 1 62.4431315 -0.2388605 44.5516865
761 1 37.237389 6.978468 33.944118
762 1 39.803018 6.8699265 32.725115
763 1 38.3806415 9.3289335 32.826761
764 1 39.464231 8.214365 35.2066285
765 1 40.8866075 5.7553585 35.104983
766 1 43.4522365 5.646817 33.88598
767 1 42.02986 8.1058235 33.987626
768 1 43.1134495 6.9912555 36.3674935
769 1 44.535826 4.532249 36.265848
770 1 47.1014545 4.4237075 35.046845
771 1 45.6790785 6.882714 35.148491
772 1 46.762668 5.768146 37.5283585
773 1 48.1850445 3.3091395 37.426713
774 1 50.750673 3.200598 36.20771
775 1 49.3282965 5.6596045 36.309356
776 1 50.4118865 4.5450365 38.6892235
777 1 51.834263 2.0860295 38.587578
778 1 54.3998915 1.9774885 37.3685755
779 1 52.977515 4.436495 37.470221
780 1 54.061105 3.3219265 39.850089
781 1 55.4834815 0.86292 39.748443
782 1 58.04911 0.754379 38.5294405
783 1 56.6267335 3.2133855 38.631086
784 1 57.7103235 2.098817 41.010954
785 1 59.1327 -0.3601895 40.909308
786 1 61.6983285 -0.4687305 39.6903055
787 1 60.275952 1.990276 39.791951
788 1 61.359542 0.8757075 42.171819
789 1 62.781918 -1.583299 42.070173
790 1 44.5954885 7.9972825 32.768623
791 1 46.017865 5.538276 32.6669775
792 1 48.244707 6.774173 33.929488
793 1 49.6670835 4.3151665 33.8278425
794 1 52.2327125 4.206625 32.6088395
795 1 50.810336 6.6656315 32.7104855
796 1 51.8939255 5.5510635 35.090353
797 1 53.316302 3.092057 34.9887075
798 1 55.8819305 2.9835155 33.7697045
799 1 54.4595545 5.442522 33.8713505
800 1 55.543144 4.327954 36.251218
801 1 56.9655205 1.868947 36.1495725
802 1 59.531149 1.760406 34.9305695