# SrTiO3 polycrystal

10537 atoms
3 atom types

-25.0 25.0 xlo xhi
-25.0 25.0 ylo yhi
-25.0 25.0 zlo zhi

Atom Type Labels

1 O
2 Ti
3 Sr

Masses

1 15.9994  # O
2 47.867  # Ti
3 87.62  # Sr

Atoms  # charge

1 1 0.0 -24.797307 5.289431 16.8168065
2 2 0.0 16.003521 14.3471325 9.7325325
3 1 0.0 15.5932825 11.3401335 12.86493
4 2 0.0 17.1614555 11.192928 11.714446
5 1 0.0 18.729629 11.045722 10.5639625
6 1 0.0 16.5824885 12.77003 10.7234895
7 2 0.0 20.2978025 10.8985165 9.4134785
8 1 0.0 21.865976 10.751311 8.262995
9 1 0.0 19.718835 12.475619 8.422522
10 2 0.0 23.4341495 10.604105 7.112511
11 1 0.0 -24.997677 10.4568995 5.9620275
12 2 0.0 -23.4295035 10.309694 4.8115435
13 1 0.0 -21.8613305 10.1624885 3.66106
14 2 0.0 15.1830435 8.3331345 15.997327
15 1 0.0 16.751217 8.185929 14.8468435
16 1 0.0 14.604076 9.910237 15.0063705
17 3 0.0 17.1772765 10.901244 15.0801585
18 2 0.0 18.3193905 8.038723 13.6963595
19 1 0.0 19.887564 7.8915175 12.545876
20 1 0.0 17.740423 9.6158255 12.705403
21 1 0.0 19.3244175 9.176936 14.9206315
22 2 0.0 21.4557375 7.744312 11.395392
23 1 0.0 23.0239105 7.597106 10.2449085
24 1 0.0 20.87677 9.321414 10.4044355
25 1 0.0 22.460764 8.882525 12.619664
26 2 0.0 24.592084 7.4499005 9.0944245
27 1 0.0 -23.8397425 7.302695 7.943941
28 1 0.0 24.013117 9.027003 8.103468
29 2 0.0 -22.271569 7.155489 6.793457
30 1 0.0 -20.7033955 7.0082835 5.6429735
31 1 0.0 -22.8505365 8.7325915 5.8025005
32 2 0.0 -19.135222 6.861078 4.4924895
33 1 0.0 -17.5670485 6.7138725 3.342006
34 1 0.0 -19.7141895 8.4381805 3.501533
35 2 0.0 -15.998875 6.5666665 2.191522
36 1 0.0 -14.430702 6.419461 1.0410385
37 1 0.0 -16.5778425 8.143769 1.2005655
38 2 0.0 -12.8625285 6.2722555 -0.109445
39 1 0.0 -11.294355 6.1250495 -1.259929
40 1 0.0 17.9091515 5.031724 16.828757
41 2 0.0 19.477325 4.8845185 15.678273
42 1 0.0 21.0454985 4.737313 14.5277895
43 1 0.0 18.898358 6.461621 14.6873165
44 1 0.0 20.482352 6.0227315 16.902545
45 3 0.0 21.471558 7.452628 14.7611045
46 2 0.0 22.613672 4.590107 13.3773055
47 1 0.0 24.1818455 4.4429015 12.226822
48 1 0.0 22.0347045 6.1672095 12.386349
49 1 0.0 23.618699 5.72832 14.6015775
50 3 0.0 24.607905 7.158217 12.460137
51 2 0.0 -24.249981 4.295696 11.076338
52 1 0.0 -22.6818075 4.14849 9.9258545
53 1 0.0 -24.8289485 5.872798 10.0853815
54 1 0.0 -23.244954 5.433909 12.30061
55 3 0.0 -22.255748 6.8638055 10.1591695
56 2 0.0 -21.113634 4.0012845 8.7753705
57 1 0.0 -19.545461 3.854079 7.624887
58 1 0.0 -21.6926015 5.578387 7.784414
59 1 0.0 -20.1086075 5.1394975 9.9996425
60 3 0.0 -19.119401 6.5693945 7.8582025
61 2 0.0 -17.9772875 3.7068735 6.474403
62 1 0.0 -16.409114 3.5596675 5.3239195
63 1 0.0 -18.5562545 5.2839755 5.4834465
64 1 0.0 -16.9722605 4.8450865 7.6986755
65 2 0.0 -14.8409405 3.412462 4.1734355
66 1 0.0 -13.272767 3.2652565 3.022952
67 1 0.0 -15.419908 4.9895645 3.182479
68 1 0.0 -12.283561 4.695153 0.8815115
69 1 0.0 -9.147214 4.4007415 -1.419456
70 1 0.0 22.2034335 1.583108 16.509703
71 1 0.0 20.0562925 3.307416 16.66923
72 3 0.0 22.629493 4.2984235 16.743018
73 2 0.0 23.771607 1.4359025 15.359219
74 1 0.0 -24.66022 1.288697 14.2087355
75 1 0.0 23.1926395 3.013005 14.3682625
76 1 0.0 24.7766335 2.5741155 16.583491
77 3 0.0 -24.23416 4.0040125 14.4420505
78 2 0.0 -23.0920465 1.141491 13.0582515
79 1 0.0 -21.523873 0.9942855 11.907768
80 1 0.0 -23.6710135 2.7185935 12.067295
81 3 0.0 -21.0978135 3.709601 12.141083
82 1 0.0 -20.534667 2.424182 9.7663275
83 1 0.0 -17.39832 2.129771 7.46536
84 1 0.0 24.350574 -0.1412 16.350176
85 1 0.0 14.403706 15.0777055 4.151591
86 2 0.0 15.9718795 14.9304995 3.0011075
87 1 0.0 17.5400525 14.783294 1.8506235
88 1 0.0 16.976906 16.068713 4.2253795
89 2 0.0 19.108226 14.6360885 0.70014
90 1 0.0 20.6763995 14.488883 -0.450344
91 1 0.0 18.529259 16.2131905 -0.290817
92 1 0.0 20.113253 15.7743015 1.924412
93 2 0.0 22.244573 14.341677 -1.6008275
94 1 0.0 23.8127465 14.1944715 -2.751311
95 1 0.0 21.6656055 15.9187795 -2.591784
96 2 0.0 -24.61908 14.047266 -3.901795
97 1 0.0 -23.0509065 13.90006 -5.0522785
98 1 0.0 24.8019525 15.624368 -4.8927515
99 2 0.0 -21.4827335 13.7528545 -6.2027625
100 1 0.0 -19.91456 13.605649 -7.353246
101 1 0.0 -22.0617005 15.329957 -7.193719
102 2 0.0 -18.3463865 13.458443 -8.50373
103 1 0.0 -16.778213 13.3112375 -9.6542135
104 1 0.0 12.4252935 12.217912 8.434472
105 2 0.0 13.993467 12.0707065 7.2839885
106 1 0.0 15.5616405 11.9235005 6.1335045
107 1 0.0 13.4144995 13.6478085 6.2930315
108 1 0.0 14.998494 13.2089195 8.5082605
109 3 0.0 15.9877 14.638816 6.36682
110 2 0.0 17.129814 11.776295 4.983021
111 1 0.0 18.6979875 11.6290895 3.832537
112 1 0.0 16.5508465 13.3533975 3.992064
113 1 0.0 18.134841 12.914508 6.207293
114 3 0.0 19.124047 14.344405 4.0658525
115 2 0.0 20.266161 11.4818835 2.6820535
116 1 0.0 21.8343345 11.334678 1.5315695
117 1 0.0 19.6871935 13.058986 1.6910965
118 1 0.0 21.271188 12.620097 3.9063255
119 3 0.0 22.260394 14.0499935 1.764885
120 2 0.0 23.4025075 11.1874725 0.381086
121 1 0.0 24.970681 11.040267 -0.7693975
122 1 0.0 22.8235405 12.764575 -0.6098705
123 1 0.0 24.4075345 12.3256855 1.605358
124 3 0.0 -24.6032595 13.755582 -0.5360825
125 2 0.0 -23.4611455 10.893061 -1.9198815
126 1 0.0 -21.892972 10.7458555 -3.070365
127 1 0.0 -24.040113 12.4701635 -2.910838
128 1 0.0 -22.4561185 12.031274 -0.6956095
129 2 0.0 -20.3247985 10.59865 -4.220849
130 1 0.0 -18.756625 10.451444 -5.3713325
131 1 0.0 -20.903766 12.175752 -5.2118055
132 1 0.0 -19.3197715 11.736863 -2.996577
133 2 0.0 -17.1884515 10.3042385 -6.5218165
134 1 0.0 -15.620278 10.157033 -7.6723
135 1 0.0 -17.767419 11.881341 -7.512773
136 2 0.0 -14.052105 10.0098275 -8.822784
137 1 0.0 -12.4839315 9.8626215 -9.9732675
138 1 0.0 -14.631072 11.5869295 -9.8137405
139 2 0.0 -10.915758 9.715416 -11.1237515
140 1 0.0 -9.3475845 9.5682105 -12.274235
141 1 0.0 -11.4947255 11.2925185 -12.114708
142 2 0.0 -7.779411 9.4210045 -13.424719
143 2 0.0 12.015055 9.210913 11.5668695
144 1 0.0 13.5832285 9.0637075 10.4163855
145 1 0.0 13.020082 10.349126 12.7911415
146 3 0.0 14.009288 11.7790225 10.649701
147 2 0.0 15.151402 8.9165015 9.265902
148 1 0.0 16.7195755 8.769296 8.115418
149 1 0.0 14.5724345 10.493604 8.274945
150 1 0.0 16.156429 10.0547145 10.490174
151 3 0.0 17.145635 11.4846115 8.3487335
152 2 0.0 18.2877485 8.6220905 6.9649345
153 1 0.0 19.855922 8.4748845 5.8144505
154 1 0.0 17.7087815 10.1991925 5.9739775
155 1 0.0 19.2927755 9.7603035 8.1892065
156 3 0.0 20.2819815 11.1902 6.047766
157 2 0.0 21.4240955 8.327679 4.663967
158 1 0.0 22.992269 8.1804735 3.513483
159 1 0.0 20.845128 9.9047815 3.67301
160 1 0.0 22.4291225 9.465892 5.888239
161 3 0.0 23.4183285 10.895789 3.7467985
162 2 0.0 24.5604425 8.033268 2.3629995
163 1 0.0 -23.871384 7.886062 1.212516
164 1 0.0 23.981475 9.61037 1.3720425
165 1 0.0 -24.4345305 9.171481 3.5872715
166 3 0.0 -23.4453245 10.6013775 1.445831
167 2 0.0 -22.3032105 7.7388565 0.062032
168 1 0.0 -20.735037 7.591651 -1.0884515
169 1 0.0 -22.882178 9.315959 -0.9289245
170 1 0.0 -21.2981835 8.8770695 1.286304
171 3 0.0 -20.3089775 10.306966 -0.8551365
172 2 0.0 -19.166864 7.444445 -2.2389355
173 1 0.0 -17.5986905 7.2972395 -3.389419
174 1 0.0 -19.745831 9.0215475 -3.229892
175 1 0.0 -18.161837 8.5826585 -1.0146635
176 3 0.0 -17.172631 10.012555 -3.156104
177 2 0.0 -16.030517 7.150034 -4.539903
178 1 0.0 -14.4623435 7.0028285 -5.6903865
179 1 0.0 -16.6094845 8.727136 -5.5308595
180 1 0.0 -15.02549 8.288247 -3.315631
181 3 0.0 -14.036284 9.7181435 -5.4570715
182 2 0.0 -12.89417 6.8556225 -6.8408705
183 1 0.0 -11.3259965 6.708417 -7.991354
184 1 0.0 -13.4731375 8.432725 -7.831827
185 1 0.0 -11.889143 7.9938355 -5.6165985
186 2 0.0 -9.757823 6.5612115 -9.141838
187 1 0.0 -8.1896495 6.4140055 -10.2923215
188 1 0.0 -10.3367905 8.1383135 -10.1327945
189 1 0.0 -8.7527965 7.6994245 -7.917566
190 1 0.0 -7.2004435 7.8439025 -12.433762
191 2 0.0 10.036643 6.3511195 15.8497505
192 1 0.0 11.6048165 6.203914 14.6992665
193 3 0.0 12.030876 8.9192295 14.932582
194 2 0.0 13.1729895 6.0567085 13.548783
195 1 0.0 14.741163 5.9095025 12.398299
196 1 0.0 12.5940225 7.6338105 12.557826
197 1 0.0 14.1780165 7.1949215 14.773055
198 3 0.0 15.1672225 8.624818 12.6316145
199 2 0.0 16.3093365 5.762297 11.2478155
200 1 0.0 17.87751 5.6150915 10.0973315
201 1 0.0 15.730369 7.3393995 10.2568585
202 1 0.0 17.3143635 6.90051 12.4720875
203 3 0.0 18.3035695 8.3304065 10.330647
204 2 0.0 19.4456835 5.4678855 8.946848
205 1 0.0 21.013857 5.32068 7.796364
206 1 0.0 18.866716 7.044988 7.955891
207 1 0.0 20.4507105 6.606099 10.17112
208 3 0.0 21.4399165 8.0359955 8.0296795
209 2 0.0 22.5820305 5.1734745 6.6458805
210 1 0.0 24.150204 5.026269 5.4953965
211 1 0.0 22.003063 6.7505765 5.6549235
212 1 0.0 23.5870575 6.3116875 7.8701525
213 3 0.0 24.5762635 7.741584 5.728712
214 2 0.0 -24.281623 4.879063 4.344913
215 1 0.0 -22.7134495 4.7318575 3.194429
216 1 0.0 -24.86059 6.4561655 3.353956
217 1 0.0 -23.276596 6.017276 5.569185
218 3 0.0 -22.28739 7.447173 3.4277445
219 2 0.0 -21.145276 4.584652 2.0439455
220 1 0.0 -19.5771025 4.437446 0.893462
221 1 0.0 -21.7242435 6.161754 1.052989
222 1 0.0 -20.140249 5.722865 3.2682175
223 3 0.0 -19.151043 7.1527615 1.126777
224 2 0.0 -18.008929 4.2902405 -0.257022
225 1 0.0 -16.4407555 4.143035 -1.4075055
226 1 0.0 -18.5878965 5.867343 -1.2479785
227 1 0.0 -17.003902 5.4284535 0.96725
228 3 0.0 -16.014696 6.8583505 -1.1741905
229 2 0.0 -14.872582 3.995829 -2.5579895
230 1 0.0 -13.3044085 3.8486235 -3.708473
231 1 0.0 -15.4515495 5.5729315 -3.548946
232 1 0.0 -13.8675555 5.1340425 -1.3337175
233 3 0.0 -12.878349 6.563939 -3.475158
234 2 0.0 -11.7362355 3.701418 -4.858957
235 1 0.0 -10.168062 3.5542125 -6.0094405
236 1 0.0 -12.3152025 5.2785205 -5.8499135
237 1 0.0 -10.7312085 4.839631 -3.634685
238 3 0.0 -9.7420025 6.2695275 -5.7761255
239 2 0.0 -8.5998885 3.4070065 -7.1599245
240 1 0.0 -7.031715 3.259801 -8.310408
241 1 0.0 -9.178856 4.984109 -8.150881
242 1 0.0 -7.5948615 4.5452195 -5.9356525
243 1 0.0 12.762751 3.0497095 16.68118
244 1 0.0 10.61561 4.7740175 16.840707
245 3 0.0 13.1888105 5.7650245 16.9144955
246 2 0.0 14.3309245 2.9025035 15.5306965
247 1 0.0 15.899098 2.755298 14.3802125
248 1 0.0 13.751957 4.479606 14.5397395
249 1 0.0 15.3359515 4.0407165 16.7549685
250 3 0.0 16.3251575 5.4706135 14.613528
251 2 0.0 17.4672715 2.6080925 13.229729
252 1 0.0 19.035445 2.4608865 12.079245
253 1 0.0 16.888304 4.1851945 12.238772
254 1 0.0 18.472298 3.7463055 14.454001
255 3 0.0 19.4615045 5.176202 12.3125605
256 2 0.0 20.603618 2.313681 10.9287615
257 1 0.0 22.1717915 2.1664755 9.7782775
258 1 0.0 20.024651 3.8907835 9.9378045
259 1 0.0 21.608645 3.451894 12.1530335
260 3 0.0 22.597851 4.881791 10.011593
261 2 0.0 23.739965 2.0192695 8.627794
262 1 0.0 -24.6918615 1.872064 7.47731
263 1 0.0 23.1609975 3.596372 7.636837
264 1 0.0 24.744992 3.157483 9.852066
265 3 0.0 -24.265802 4.5873795 7.7106255
266 2 0.0 -23.123688 1.7248585 6.3268265
267 1 0.0 -21.5555145 1.577653 5.1763425
268 1 0.0 -23.7026555 3.301961 5.3358695
269 1 0.0 -22.118661 2.8630715 7.5510985
270 3 0.0 -21.129455 4.292968 5.409658
271 2 0.0 -19.987341 1.430447 4.025859
272 1 0.0 -18.419168 1.2832415 2.8753755
273 1 0.0 -20.5663085 3.0075495 3.0349025
274 1 0.0 -18.9823145 2.56866 5.250131
275 3 0.0 -17.993108 3.998557 3.1086905
276 2 0.0 -16.8509945 1.136036 1.7248915
277 1 0.0 -15.282821 0.98883 0.574408
278 1 0.0 -17.4299615 2.713138 0.733935
279 1 0.0 -15.8459675 2.274249 2.9491635
280 3 0.0 -14.8567615 3.7041455 0.807723
281 2 0.0 -13.7146475 0.8416245 -0.576076
282 1 0.0 -12.146474 0.694419 -1.7265595
283 1 0.0 -14.293615 2.418727 -1.5670325
284 1 0.0 -12.7096205 1.9798375 0.648196
285 3 0.0 -11.7204145 3.4097345 -1.4932445
286 2 0.0 -10.5783005 0.5472135 -2.8770435
287 1 0.0 -9.010127 0.4000075 -4.027527
288 1 0.0 -11.157268 2.1243155 -3.868
289 3 0.0 -8.5840675 3.115323 -3.794212
290 1 0.0 -8.020921 1.8299045 -6.1689675
291 1 0.0 17.0570325 -0.3989065 16.362126
292 1 0.0 14.909892 1.3254015 16.521653
293 3 0.0 17.483092 2.3164085 16.5954415
294 2 0.0 18.625206 -0.5461125 15.2116425
295 1 0.0 20.1933795 -0.693318 14.0611585
296 1 0.0 18.0462385 1.03099 14.2206855
297 1 0.0 19.630233 0.5921005 16.4359145
298 3 0.0 20.619439 2.0219975 14.294474
299 2 0.0 21.761553 -0.8405235 12.910675
300 1 0.0 23.3297265 -0.9877295 11.760191
301 1 0.0 21.1825855 0.7365785 11.919718
302 1 0.0 22.76658 0.2976895 14.134947
303 3 0.0 23.755786 1.727586 11.9935065
304 2 0.0 24.8979 -1.134935 10.6097075
305 1 0.0 -23.533927 -1.2821405 9.4592235
306 1 0.0 24.3189325 0.4421675 9.6187505
307 1 0.0 -24.0970735 0.003278 11.8339795
308 3 0.0 -23.107867 1.433175 9.692539
309 2 0.0 -21.9657535 -1.429346 8.30874
310 1 0.0 -20.39758 -1.576552 7.158256
311 1 0.0 -22.5447205 0.147756 7.317783
312 1 0.0 -20.9607265 -0.291133 9.533012
313 3 0.0 -19.9715205 1.1387635 7.3915715
314 2 0.0 -18.8294065 -1.7237575 6.0077725
315 1 0.0 -17.261233 -1.870963 4.8572885
316 1 0.0 -19.408374 -0.146655 5.0168155
317 3 0.0 -16.8351735 0.844352 5.090604
318 1 0.0 -16.272027 -0.4410665 2.7158485
319 1 0.0 -13.13568 -0.735478 0.414881
320 1 0.0 21.351314 -3.8475225 16.043072
321 1 0.0 19.2041735 -2.1232145 16.202599
322 3 0.0 21.777374 -1.132207 16.2763875
323 2 0.0 22.9194875 -3.9947285 14.8925885
324 1 0.0 24.487661 -4.141934 13.7421045
325 1 0.0 22.3405205 -2.417626 13.9016315
326 3 0.0 24.9137205 -1.4266185 13.97542
327 1 0.0 -24.523133 -2.7120375 11.600664
328 1 0.0 -21.386786 -3.0064485 9.2996965
329 2 0.0 12.8038905 15.808278 -1.42935
330 1 0.0 14.372064 15.6610725 -2.579834
331 2 0.0 15.9402375 15.513867 -3.7303175
332 1 0.0 17.508411 15.3666615 -4.8808015
333 2 0.0 19.0765845 15.2194555 -6.031285
334 1 0.0 20.644758 15.07225 -7.181769
335 2 0.0 22.2129315 14.9250445 -8.3322525
336 1 0.0 23.7811045 14.7778385 -9.4827365
337 1 0.0 23.217958 16.0632575 -7.1079805
338 2 0.0 -24.650722 14.630633 -10.63322
339 1 0.0 -23.0825485 14.4834275 -11.783704
340 1 0.0 24.770311 16.2077355 -11.624177
341 1 0.0 -23.645695 15.768846 -9.408948
342 2 0.0 -21.514375 14.336222 -12.9341875
343 1 0.0 -19.9462015 14.189016 -14.0846715
344 1 0.0 -22.0933425 15.913324 -13.9251445
345 1 0.0 -20.509348 15.474435 -11.7099155
346 2 0.0 -18.378028 14.0418105 -15.235155
347 1 0.0 -16.8098545 13.894605 -16.385639
348 1 0.0 -18.9569955 15.618913 -16.226112
349 1 0.0 -17.373001 15.1800235 -14.010883
350 2 0.0 10.8254785 12.948485 2.8535305
351 1 0.0 12.393652 12.801279 1.703047
352 1 0.0 11.8305055 14.086698 4.077803
353 3 0.0 12.8197115 15.5165945 1.9363625
354 2 0.0 13.9618255 12.6540735 0.5525635
355 1 0.0 15.529999 12.506868 -0.5979205
356 1 0.0 13.382858 14.231176 -0.4383935
357 1 0.0 14.9668525 13.7922865 1.7768355
358 3 0.0 15.9560585 15.2221835 -0.364605
359 2 0.0 17.0981725 12.3596625 -1.748404
360 1 0.0 18.6663455 12.2124565 -2.898888
361 1 0.0 16.519205 13.9367645 -2.739361
362 1 0.0 18.103199 13.4978755 -0.524132
363 3 0.0 19.0924055 14.927772 -2.6655725
364 2 0.0 20.234519 12.065251 -4.0493715
365 1 0.0 21.8026925 11.9180455 -5.1998555
366 1 0.0 19.655552 13.6423535 -5.0403285
367 1 0.0 21.239546 13.203464 -2.8250995
368 3 0.0 22.228752 14.6333605 -4.96654
369 2 0.0 23.370866 11.7708395 -6.350339
370 1 0.0 24.9390395 11.623634 -7.500823
371 1 0.0 22.7918985 13.347942 -7.341296
372 1 0.0 24.375893 12.909053 -5.126067
373 3 0.0 -24.634901 14.3389495 -7.2675075
374 2 0.0 -23.492787 11.4764285 -8.6513065
375 1 0.0 -21.9246135 11.3292225 -9.8017905
376 1 0.0 -24.0717545 13.0535305 -9.6422635
377 1 0.0 -22.48776 12.6146415 -7.4270345
378 3 0.0 -21.498554 14.044538 -9.568475
379 2 0.0 -20.35644 11.182017 -10.952274
380 1 0.0 -18.788267 11.0348115 -12.102758
381 1 0.0 -20.9354075 12.7591195 -11.943231
382 1 0.0 -19.3514135 12.32023 -9.728002
383 3 0.0 -18.362207 13.750127 -11.8694425
384 2 0.0 -17.2200935 10.887606 -13.2532415
385 1 0.0 -15.65192 10.7404 -14.4037255
386 1 0.0 -17.7990605 12.464708 -14.2441985
387 1 0.0 -16.2150665 12.025819 -12.0289695
388 3 0.0 -15.2258605 13.4557155 -14.17041
389 2 0.0 -14.0837465 10.5931945 -15.554209
390 1 0.0 -12.515573 10.445989 -16.704693
391 1 0.0 -14.662714 12.170297 -16.545166
392 1 0.0 -13.0787195 11.7314075 -14.329937
393 2 0.0 8.8470665 10.0886915 7.1364115
394 1 0.0 10.41524 9.941486 5.985928
395 2 0.0 11.9834135 9.79428 4.835444
396 1 0.0 13.5515865 9.6470745 3.6849605
397 1 0.0 11.404446 11.3713825 3.8444875
398 1 0.0 12.98844 10.9324935 6.0597165
399 3 0.0 13.9776465 12.36239 3.918276
400 2 0.0 15.11976 9.499869 2.5344765
401 1 0.0 16.6879335 9.3526635 1.383993
402 1 0.0 14.540793 11.076971 1.54352
403 1 0.0 16.124787 10.638082 3.758749
404 3 0.0 17.113993 12.0679785 1.6173085
405 2 0.0 18.256107 9.2054575 0.2335095
406 1 0.0 19.8242805 9.058252 -0.9169745
407 1 0.0 17.6771395 10.78256 -0.7574475
408 1 0.0 19.261134 10.3436705 1.4577815
409 3 0.0 20.25034 11.7735675 -0.683659
410 2 0.0 21.392454 8.9110465 -2.067458
411 1 0.0 22.9606275 8.7638405 -3.217942
412 1 0.0 20.8134865 10.4881485 -3.058415
413 1 0.0 22.397481 10.0492595 -0.843186
414 3 0.0 23.386687 11.479156 -2.9846265
415 2 0.0 24.528801 8.616635 -4.3684255
416 1 0.0 -23.903026 8.4694295 -5.5189095
417 1 0.0 23.9498335 10.1937375 -5.3593825
418 1 0.0 -24.4661725 9.754848 -3.1441535
419 3 0.0 -23.4769665 11.184745 -5.285594
420 2 0.0 -22.3348525 8.3222235 -6.669393
421 1 0.0 -20.766679 8.175018 -7.819877
422 1 0.0 -22.9138195 9.899326 -7.66035
423 1 0.0 -21.3298255 9.460437 -5.445121
424 3 0.0 -20.3406195 10.8903335 -7.5865615
425 2 0.0 -19.1985055 8.0278125 -8.9703605
426 1 0.0 -17.630332 7.880607 -10.1208445
427 1 0.0 -19.777473 9.604915 -9.9613175
428 1 0.0 -18.1934785 9.1660255 -7.7460885
429 3 0.0 -17.2042725 10.595922 -9.887529
430 2 0.0 -16.0621585 7.733401 -11.271328
431 1 0.0 -14.493985 7.5861955 -12.421812
432 1 0.0 -16.641126 9.3105035 -12.262285
433 1 0.0 -15.0571315 8.871614 -10.047056
434 3 0.0 -14.0679255 10.301511 -12.1884965
435 2 0.0 -12.925812 7.43899 -13.5722955
436 1 0.0 -11.3576385 7.291784 -14.7227795
437 1 0.0 -13.504779 9.016092 -14.5632525
438 1 0.0 -11.920785 8.577203 -12.3480235
439 3 0.0 -10.931579 10.0070995 -14.489464
440 2 0.0 -9.789465 7.1445785 -15.873263
441 1 0.0 -8.2212915 6.997373 -17.0237465
442 1 0.0 -10.3684325 8.721681 -16.8642195
443 1 0.0 -8.784438 8.2827915 -14.648991
444 1 0.0 8.4368275 7.0816925 10.268809
445 2 0.0 10.005001 6.934487 9.118325
446 1 0.0 11.5731745 6.787281 7.9678415
447 1 0.0 9.426034 8.511589 8.1273685
448 1 0.0 11.010028 8.0727 10.3425975
449 3 0.0 11.999234 9.5025965 8.201157
450 2 0.0 13.141348 6.6400755 6.8173575
451 1 0.0 14.7095215 6.49287 5.666874
452 1 0.0 12.5623805 8.217178 5.826401
453 1 0.0 14.146375 7.7782885 8.04163
454 3 0.0 15.135581 9.2081855 5.9001895
455 2 0.0 16.277695 6.345664 4.51639
456 1 0.0 17.8458685 6.1984585 3.3659065
457 1 0.0 15.6987275 7.9227665 3.5254335
458 1 0.0 17.282722 7.4838775 5.7406625
459 3 0.0 18.271928 8.913774 3.599222
460 2 0.0 19.414042 6.051253 2.215423
461 1 0.0 20.982215 5.9040475 1.064939
462 1 0.0 18.8350745 7.6283555 1.224466
463 1 0.0 20.4190685 7.189466 3.439695
464 3 0.0 21.4082745 8.6193625 1.2982545
465 2 0.0 22.5503885 5.7568415 -0.0855445
466 1 0.0 24.118562 5.609636 -1.2360285
467 1 0.0 21.9714215 7.333944 -1.0765015
468 1 0.0 23.5554155 6.8950545 1.1387275
469 3 0.0 24.5446215 8.3249515 -1.002713
470 2 0.0 -24.3132645 5.4624305 -2.386512
471 1 0.0 -22.745091 5.3152245 -3.536996
472 1 0.0 -24.892232 7.0395325 -3.377469
473 1 0.0 -23.3082375 6.6006435 -1.16224
474 3 0.0 -22.3190315 8.03054 -3.3036805
475 2 0.0 -21.1769175 5.168019 -4.6874795
476 1 0.0 -19.608744 5.0208135 -5.8379635
477 1 0.0 -21.755885 6.7451215 -5.6784365
478 1 0.0 -20.1718905 6.306232 -3.4632075
479 3 0.0 -19.1826845 7.736129 -5.604648
480 2 0.0 -18.040571 4.873608 -6.988447
481 1 0.0 -16.4723975 4.726402 -8.138931
482 1 0.0 -18.619538 6.45071 -7.979404
483 1 0.0 -17.035544 6.011821 -5.764175
484 3 0.0 -16.046338 7.4417175 -7.9056155
485 2 0.0 -14.904224 4.5791965 -9.2894145
486 1 0.0 -13.3360505 4.431991 -10.4398985
487 1 0.0 -15.4831915 6.156299 -10.2803715
488 1 0.0 -13.899197 5.7174095 -8.0651425
489 3 0.0 -12.909991 7.147306 -10.206583
490 2 0.0 -11.767877 4.284785 -11.590382
491 1 0.0 -10.1997035 4.1375795 -12.740866
492 1 0.0 -12.3468445 5.8618875 -12.581339
493 1 0.0 -10.76285 5.422998 -10.36611
494 3 0.0 -9.773644 6.852895 -12.5075505
495 2 0.0 -8.63153 3.990374 -13.8913495
496 1 0.0 -7.0633565 3.843168 -15.041833
497 1 0.0 -9.2104975 5.567476 -14.8823065
498 1 0.0 -7.626503 5.128587 -12.6670775
499 1 0.0 6.4584155 4.221899 14.55169
500 2 0.0 8.026589 4.0746935 13.401206
501 1 0.0 9.5947625 3.927488 12.2507225
502 1 0.0 7.4476215 5.651796 12.4102495
503 1 0.0 9.031616 5.2129065 14.625478
504 3 0.0 10.020822 6.642803 12.4840375
505 2 0.0 11.162936 3.780282 11.1002385
506 1 0.0 12.7311095 3.6330765 9.949755
507 1 0.0 10.5839685 5.3573845 10.109282
508 1 0.0 12.167963 4.918495 12.324511
509 3 0.0 13.157169 6.348392 10.1830705
510 2 0.0 14.2992825 3.485871 8.799271
511 1 0.0 15.867456 3.338665 7.6487875
512 1 0.0 13.7203155 5.062973 7.8083145
513 1 0.0 15.3043095 4.624084 10.0235435
514 3 0.0 16.2935155 6.0539805 7.882103
515 2 0.0 17.4356295 3.1914595 6.4983035
516 1 0.0 19.003803 3.044254 5.34782
517 1 0.0 16.8566625 4.768562 5.507347
518 1 0.0 18.4406565 4.3296725 7.722576
519 3 0.0 19.4298625 5.7595695 5.5811355
520 2 0.0 20.5719765 2.8970485 4.1973365
521 1 0.0 22.14015 2.7498425 3.0468525
522 1 0.0 19.993009 4.4741505 3.2063795
523 1 0.0 21.5770035 4.0352615 5.4216085
524 3 0.0 22.5662095 5.465158 3.280168
525 2 0.0 23.7083235 2.602637 1.896369
526 1 0.0 -24.723503 2.4554315 0.745885
527 1 0.0 23.129356 4.1797395 0.905412
528 1 0.0 24.7133505 3.74085 3.120641
529 3 0.0 -24.2974435 5.1707465 0.9792005
530 2 0.0 -23.15533 2.3082255 -0.4045985
531 1 0.0 -21.5871565 2.16102 -1.5550825
532 1 0.0 -23.734297 3.885328 -1.3955555
533 1 0.0 -22.150303 3.446439 0.8196735
534 3 0.0 -21.161097 4.8763355 -1.321767
535 2 0.0 -20.018983 2.0138145 -2.705566
536 1 0.0 -18.4508095 1.866609 -3.85605
537 1 0.0 -20.5979505 3.5909165 -3.696523
538 1 0.0 -19.013956 3.1520275 -1.481294
539 3 0.0 -18.02475 4.581924 -3.6227345
540 2 0.0 -16.882636 1.719403 -5.0065335
541 1 0.0 -15.3144625 1.5721975 -6.1570175
542 1 0.0 -17.4616035 3.2965055 -5.9974905
543 1 0.0 -15.877609 2.857616 -3.7822615
544 3 0.0 -14.888403 4.287513 -5.923702
545 2 0.0 -13.746289 1.424992 -7.307501
546 1 0.0 -12.1781155 1.277786 -8.457985
547 1 0.0 -14.3252565 3.002094 -8.298458
548 1 0.0 -12.741262 2.563205 -6.083229
549 3 0.0 -11.752056 3.9931015 -8.2246695
550 2 0.0 -10.6099425 1.1305805 -9.6084685
551 1 0.0 -9.041769 0.983375 -10.7589525
552 1 0.0 -11.1889095 2.707683 -10.5994255
553 1 0.0 -9.6049155 2.2687935 -8.3841965
554 3 0.0 -8.6157095 3.6986905 -10.525637
555 2 0.0 -7.4735955 0.836169 -11.909436
556 1 0.0 -8.052563 2.4132715 -12.900393
557 3 0.0 8.04241 3.78301 16.7669185
558 2 0.0 9.1845235 0.920489 15.3831195
559 1 0.0 10.752697 0.773283 14.232636
560 1 0.0 8.6055565 2.497591 14.392163
561 1 0.0 10.1895505 2.058702 16.6073915
562 3 0.0 11.1787565 3.4885985 14.465951
563 2 0.0 12.3208705 0.6260775 13.082152
564 1 0.0 13.889044 0.478872 11.9316685
565 1 0.0 11.741903 2.20318 12.0911955
566 1 0.0 13.3258975 1.7642905 14.306424
567 3 0.0 14.3151035 3.194187 12.164984
568 2 0.0 15.4572175 0.331666 10.7811845
569 1 0.0 17.025391 0.1844605 9.630701
570 1 0.0 14.87825 1.9087685 9.790228
571 1 0.0 16.4622445 1.4698795 12.005457
572 3 0.0 17.4514505 2.899776 9.8640165
573 2 0.0 18.5935645 0.037255 8.480217
574 1 0.0 20.161738 -0.1099505 7.3297335
575 1 0.0 18.014597 1.614357 7.4892605
576 1 0.0 19.5985915 1.175468 9.7044895
577 3 0.0 20.5877975 2.6053645 7.563049
578 2 0.0 21.729911 -0.2571565 6.1792495
579 1 0.0 23.2980845 -0.404362 5.028766
580 1 0.0 21.150944 1.319946 5.188293
581 1 0.0 22.734938 0.8810565 7.403522
582 3 0.0 23.724144 2.3109535 5.2620815
583 2 0.0 24.866258 -0.5515675 3.8782825
584 1 0.0 -23.5655685 -0.6987735 2.7277985
585 1 0.0 24.2872905 1.0255345 2.8873255
586 1 0.0 -24.128715 0.5866455 5.1025545
587 3 0.0 -23.139509 2.016542 2.961114
588 2 0.0 -21.997395 -0.845979 1.577315
589 1 0.0 -20.4292215 -0.9931845 0.426831
590 1 0.0 -22.5763625 0.7311235 0.586358
591 1 0.0 -20.992368 0.292234 2.801587
592 3 0.0 -20.003162 1.722131 0.6601465
593 2 0.0 -18.861048 -1.1403905 -0.7236525
594 1 0.0 -17.2928745 -1.287596 -1.8741365
595 1 0.0 -19.4400155 0.436712 -1.7146095
596 1 0.0 -17.856021 -0.002177 0.5006195
597 3 0.0 -16.866815 1.4277195 -1.640821
598 2 0.0 -15.7247015 -1.4348015 -3.02462
599 1 0.0 -14.156528 -1.582007 -4.175104
600 1 0.0 -16.3036685 0.142301 -4.015577
601 1 0.0 -14.7196745 -0.2965885 -1.800348
602 3 0.0 -13.7304685 1.133308 -3.9417885
603 2 0.0 -12.5883545 -1.729213 -5.3255875
604 1 0.0 -11.020181 -1.8764185 -6.4760715
605 1 0.0 -13.167322 -0.1521105 -6.3165445
606 1 0.0 -11.5833275 -0.591 -4.1013155
607 3 0.0 -10.5941215 0.838897 -6.242756
608 2 0.0 -9.4520075 -2.023624 -7.626555
609 1 0.0 -7.883834 -2.17083 -8.777039
610 1 0.0 -10.030975 -0.446522 -8.617512
611 1 0.0 -8.4469805 -0.885411 -6.402283
612 3 0.0 -7.4577745 0.5444855 -8.5437235
613 1 0.0 -6.894628 -0.740933 -10.9184795
614 1 0.0 11.910632 -2.3809215 16.2145495
615 1 0.0 9.763491 -0.6566135 16.3740765
616 3 0.0 12.3366915 0.334394 16.4478645
617 2 0.0 13.4788055 -2.528127 15.0640655
618 1 0.0 15.046979 -2.675333 13.913582
619 1 0.0 12.899838 -0.951025 14.073109
620 1 0.0 14.4838325 -1.389914 16.2883375
621 3 0.0 15.4730385 0.0399825 14.1468975
622 2 0.0 16.615152 -2.8225385 12.763098
623 1 0.0 18.1833255 -2.969744 11.6126145
624 1 0.0 16.036185 -1.245436 11.7721415
625 1 0.0 17.620179 -1.6843255 13.9873705
626 3 0.0 18.609385 -0.2544285 11.84593
627 2 0.0 19.751499 -3.11695 10.4621305
628 1 0.0 21.3196725 -3.2641555 9.311647
629 1 0.0 19.1725315 -1.5398475 9.471174
630 1 0.0 20.756526 -1.9787365 11.686403
631 3 0.0 21.745732 -0.54884 9.5449625
632 2 0.0 22.887846 -3.411361 8.161163
633 1 0.0 24.4560195 -3.5585665 7.0106795
634 1 0.0 22.3088785 -1.8342585 7.1702065
635 1 0.0 23.892873 -2.273148 9.3854355
636 3 0.0 24.882079 -0.8432515 7.243995
637 2 0.0 -23.975807 -3.7057725 5.860196
638 1 0.0 -22.4076335 -3.852978 4.709712
639 1 0.0 -24.5547745 -2.12867 4.869239
640 1 0.0 -22.97078 -2.5675595 7.084468
641 3 0.0 -21.981574 -1.1376625 4.9430275
642 2 0.0 -20.8394605 -4.0001835 3.5592285
643 1 0.0 -19.271287 -4.1473895 2.4087445
644 1 0.0 -21.4184275 -2.4230815 2.5682715
645 1 0.0 -19.8344335 -2.8619705 4.7835005
646 3 0.0 -18.8452275 -1.432074 2.64206
647 2 0.0 -17.7031135 -4.294595 1.258261
648 1 0.0 -16.13494 -4.4418005 0.107777
649 1 0.0 -18.282081 -2.7174925 0.267304
650 1 0.0 -16.6980865 -3.156382 2.482533
651 3 0.0 -15.7088805 -1.726485 0.3410925
652 2 0.0 -14.5667665 -4.589006 -1.0427065
653 1 0.0 -12.998593 -4.736212 -2.1931905
654 1 0.0 -15.145734 -3.011904 -2.0336635
655 3 0.0 -12.5725335 -2.0208965 -1.959875
656 1 0.0 -12.009387 -3.306315 -4.334631
657 1 0.0 16.2049135 -5.8295375 15.8954955
658 1 0.0 14.0577725 -4.1052295 16.0550225
659 3 0.0 16.630973 -3.114222 16.1288105
660 2 0.0 17.773087 -5.976743 14.7450115
661 1 0.0 19.3412605 -6.123949 13.594528
662 1 0.0 17.1941195 -4.399641 13.754055
663 1 0.0 18.778114 -4.83853 15.969284
664 3 0.0 19.76732 -3.4086335 13.8278435
665 2 0.0 20.909434 -6.2711545 12.444044
666 1 0.0 22.4776075 -6.41836 11.2935605
667 1 0.0 20.3304665 -4.694052 11.4530875
668 1 0.0 21.9144605 -5.1329415 13.6683165
669 3 0.0 22.903667 -3.7030445 11.526876
670 2 0.0 24.0457805 -6.5655655 10.1430765
671 1 0.0 -24.386046 -6.7127715 8.992593
672 1 0.0 23.4668135 -4.9884635 9.15212
673 1 0.0 -24.9491925 -5.4273525 11.367349
674 3 0.0 -23.9599865 -3.997456 9.2259085
675 2 0.0 -22.8178725 -6.859977 7.8421095
676 1 0.0 -21.249699 -7.0071825 6.6916255
677 1 0.0 -23.39684 -5.2828745 6.8511525
678 3 0.0 -20.8236395 -4.2918675 6.924941
679 1 0.0 -20.260493 -5.577286 4.550185
680 1 0.0 -17.124146 -5.8716975 2.2492175
681 2 0.0 18.9310215 -9.130948 16.726925
682 1 0.0 20.499195 -9.2781535 15.5764415
683 1 0.0 18.3520545 -7.5538455 15.7359685
684 3 0.0 20.9252545 -6.562838 15.809757
685 1 0.0 21.488401 -7.848257 13.435001
686 1 0.0 24.624748 -8.142668 11.1340335
687 2 0.0 15.908596 16.097234 -10.461743
688 1 0.0 17.4767695 15.9500285 -11.6122265
689 2 0.0 19.0449425 15.802823 -12.7627105
690 1 0.0 20.613116 15.655617 -13.913194
691 2 0.0 22.1812895 15.5084115 -15.063678
692 1 0.0 23.749463 15.361206 -16.2141615
693 2 0.0 -24.6823635 15.2140005 -17.364645
694 1 0.0 -23.11419 15.0667945 -18.515129
695 1 0.0 9.2256635 13.679058 -2.7274105
696 2 0.0 10.793837 13.531852 -3.8778945
697 1 0.0 12.3620105 13.3846465 -5.028378
698 1 0.0 10.2148695 15.1089545 -4.868851
699 1 0.0 11.798864 14.670065 -2.6536225
700 3 0.0 12.78807 16.099962 -4.795063
701 2 0.0 13.9301835 13.237441 -6.178862
702 1 0.0 15.498357 13.090235 -7.3293455
703 1 0.0 13.3512165 14.814543 -7.1698185
704 1 0.0 14.9352105 14.375654 -4.95459
705 3 0.0 15.9244165 15.8055505 -7.0960305
706 2 0.0 17.0665305 12.9430295 -8.4798295
707 1 0.0 18.634704 12.795824 -9.630313
708 1 0.0 16.487563 14.520132 -9.470786
709 1 0.0 18.0715575 14.0812425 -7.2555575
710 3 0.0 19.0607635 15.5111395 -9.3969975
711 2 0.0 20.2028775 12.648618 -10.780797
712 1 0.0 21.771051 12.5014125 -11.9312805
713 1 0.0 19.62391 14.2257205 -11.7717535
714 1 0.0 21.2079045 13.7868315 -9.5565245
715 3 0.0 22.1971105 15.216728 -11.697965
716 2 0.0 23.3392245 12.354207 -13.0817645
717 1 0.0 24.907398 12.2070015 -14.232248
718 1 0.0 22.760257 13.9313095 -14.072721
719 1 0.0 24.344251 13.49242 -11.857492
720 3 0.0 -24.6665425 14.9223165 -13.9989325
721 2 0.0 -23.524429 12.0597955 -15.382732
722 1 0.0 -21.9562555 11.91259 -16.5332155
723 1 0.0 -24.103396 13.636898 -16.3736885
724 1 0.0 -22.519402 13.1980085 -14.1584595
725 3 0.0 -21.530196 14.6279055 -16.2999
726 2 0.0 -20.388082 11.7653845 -17.683699
727 1 0.0 -18.8199085 11.6181785 -18.834183
728 1 0.0 -20.9670495 13.3424865 -18.674656
729 1 0.0 -19.383055 12.9035975 -16.459427