# LAMMPS data file with two atom types (charge atom style) - for test suite

4 atoms
2 atom types

0.0 10.0 xlo xhi
0.0 10.0 ylo yhi
0.0 10.0 zlo zhi

Masses

1 22.9898  # Na
2 35.4530  # Cl

Atoms  # charge

1 1  1.0  0.0 0.0 0.0
2 2 -1.0  5.0 0.0 0.0
3 1  1.0  0.0 5.0 0.0
4 2 -1.0  5.0 5.0 0.0
