# Minimal LAMMPS data file using charge atom style - for test suite

2 atoms
1 atom types

0.0 10.0 xlo xhi
0.0 10.0 ylo yhi
0.0 10.0 zlo zhi

Masses

1 26.9815386  # Al

Atoms  # charge

1 1 0.0 2.5 5.0 5.0
2 1 0.0 7.5 5.0 5.0
